/*--------------------------------*- C++ -*----------------------------------*\
| =========                 |                                                 |
| \\      /  F ield         | OpenFOAM: The Open Source CFD Toolbox           |
|  \\    /   O peration     | Version:  v2106                                 |
|   \\  /    A nd           | Website:  www.openfoam.com                      |
|    \\/     M anipulation  |                                                 |
\*---------------------------------------------------------------------------*/
FoamFile
{
    version     2.0;
    format      ascii;
    arch        "LSB;label=32;scalar=64";
    class       surfaceScalarField;
    location    "0.5";
    object      phi;
}
// * * * * * * * * * * * * * * * * * * * * * * * * * * * * * * * * * * * * * //

dimensions      [0 3 -1 0 0 0 0];

oriented        oriented;

internalField   nonuniform List<scalar> 
370
(
1.42506e-08
-1.42506e-08
-2.22029e-08
3.64534e-08
-1.14271e-07
9.20679e-08
-2.45504e-07
1.31233e-07
-3.96118e-07
1.50614e-07
-5.47394e-07
1.51276e-07
-6.83226e-07
1.35832e-07
-7.90702e-07
1.07477e-07
-8.60247e-07
6.95453e-08
2.54289e-08
-3.42083e-08
1.99578e-08
-1.80377e-07
1.82622e-07
-4.3401e-07
3.45701e-07
-7.64478e-07
4.61702e-07
-1.13228e-06
5.18417e-07
-1.49734e-06
5.16333e-07
-1.82345e-06
4.61947e-07
-2.08067e-06
3.6469e-07
-2.24641e-06
2.35293e-07
8.51957e-08
-9.22302e-08
1.12188e-07
-3.57013e-07
4.47405e-07
-7.646e-07
7.53288e-07
-1.26856e-06
9.65662e-07
-1.81481e-06
1.06466e-06
-2.34919e-06
1.05071e-06
-2.8226e-06
9.35363e-07
-3.19413e-06
7.3622e-07
-3.43281e-06
4.73972e-07
1.71102e-07
-1.45217e-07
2.57405e-07
-5.25487e-07
8.27674e-07
-1.08169e-06
1.30949e-06
-1.7476e-06
1.63157e-06
-2.45446e-06
1.77152e-06
-3.13654e-06
1.73279e-06
-3.73548e-06
1.53431e-06
-4.20312e-06
1.20386e-06
-4.50315e-06
7.73998e-07
2.80115e-07
-1.93618e-07
4.51023e-07
-6.8503e-07
1.31909e-06
-1.38568e-06
2.01014e-06
-2.20734e-06
2.45323e-06
-3.0656e-06
2.62978e-06
-3.88394e-06
2.55114e-06
-4.5967e-06
2.24706e-06
-5.1508e-06
1.75796e-06
-5.50668e-06
1.12988e-06
4.12194e-07
-2.3995e-07
6.90973e-07
-8.40379e-07
1.91952e-06
-1.68335e-06
2.85311e-06
-2.65715e-06
3.42703e-06
-3.66096e-06
3.6336e-06
-4.60793e-06
3.4981e-06
-5.42654e-06
3.06568e-06
-6.06078e-06
2.3922e-06
-6.46958e-06
1.53867e-06
5.68893e-07
-2.86754e-07
9.77726e-07
-9.97115e-07
2.62988e-06
-1.98214e-06
3.83813e-06
-3.10503e-06
4.54993e-06
-4.24807e-06
4.77664e-06
-5.31497e-06
4.565e-06
-6.23029e-06
3.981e-06
-6.93737e-06
3.09928e-06
-7.3957e-06
1.997e-06
7.52032e-07
-3.36338e-07
1.31406e-06
-1.16039e-06
3.45393e-06
-2.28806e-06
4.9658e-06
-3.55507e-06
5.81693e-06
-4.82672e-06
6.04829e-06
-5.99919e-06
5.73747e-06
-6.99618e-06
4.97799e-06
-7.76368e-06
3.86678e-06
-8.26465e-06
2.49798e-06
9.62164e-07
-3.90962e-07
1.70503e-06
-1.3349e-06
4.39787e-06
-2.60501e-06
6.2359e-06
-4.00599e-06
7.21792e-06
-5.38688e-06
7.42918e-06
-6.63983e-06
6.99042e-06
-7.69253e-06
6.03069e-06
-8.49857e-06
4.67282e-06
-9.02853e-06
3.02793e-06
1.19667e-06
-4.53455e-07
2.15848e-06
-1.52569e-06
5.47011e-06
-2.93489e-06
7.64511e-06
-4.45013e-06
8.73316e-06
-5.90635e-06
8.8854e-06
-7.19785e-06
8.28192e-06
-8.26371e-06
7.09654e-06
-9.07212e-06
5.48124e-06
-9.60693e-06
3.56274e-06
1.4474e-06
-5.28333e-07
2.68681e-06
-1.73965e-06
6.68142e-06
-3.27796e-06
9.18342e-06
-4.8716e-06
1.03268e-05
-6.34698e-06
1.03608e-05
-7.61079e-06
9.54573e-06
-8.62432e-06
8.11007e-06
-9.37965e-06
6.23657e-06
-9.88096e-06
4.06405e-06
1.69794e-06
-6.23659e-07
3.31047e-06
-1.98736e-06
8.04513e-06
-3.63187e-06
1.08279e-05
-5.24187e-06
1.19368e-05
-6.6475e-06
1.17664e-05
-7.78439e-06
1.06826e-05
-8.65091e-06
8.9766e-06
-9.2742e-06
6.85985e-06
-9.68643e-06
4.47628e-06
1.92123e-06
-7.54066e-07
4.06454e-06
-2.28432e-06
9.57538e-06
-3.98695e-06
1.25306e-05
-5.50901e-06
1.34589e-05
-6.70949e-06
1.29669e-05
-7.57843e-06
1.15515e-05
-8.1699e-06
9.56808e-06
-8.55747e-06
7.24742e-06
-8.80756e-06
4.72637e-06
2.07855e-06
-9.45193e-07
5.00973e-06
-2.64845e-06
1.12786e-05
-4.31092e-06
1.4193e-05
-5.57318e-06
1.47211e-05
-6.37053e-06
1.37642e-05
-6.78309e-06
1.19641e-05
-6.94028e-06
9.72527e-06
-6.96948e-06
7.27662e-06
-6.97252e-06
4.72941e-06
2.12227e-06
-1.2373e-06
6.24703e-06
-3.08325e-06
1.31246e-05
-4.50762e-06
1.56174e-05
-5.23435e-06
1.54479e-05
-5.35504e-06
1.38849e-05
-5.08161e-06
1.16907e-05
-4.63063e-06
9.27429e-06
-4.17897e-06
6.82496e-06
-3.85404e-06
4.40448e-06
2.00493e-06
-1.67379e-06
7.92083e-06
-3.51333e-06
1.49641e-05
-4.31522e-06
1.64193e-05
-4.08875e-06
1.52214e-05
-3.19287e-06
1.29891e-05
-1.99852e-06
1.04963e-05
-7.94881e-07
8.07065e-06
2.1963e-07
5.81045e-06
9.18545e-07
3.70557e-06
1.69755e-06
-2.23068e-06
1.01515e-05
-3.59026e-06
1.63237e-05
-3.07772e-06
1.59067e-05
-1.34377e-06
1.34874e-05
8.97183e-07
1.07481e-05
3.15516e-06
8.23834e-06
5.13835e-06
6.08747e-06
6.68895e-06
4.25984e-06
7.72611e-06
2.66841e-06
1.21682e-06
-2.57381e-06
1.27253e-05
-2.18344e-06
1.59333e-05
7.18111e-07
1.30052e-05
4.46964e-06
9.73591e-06
8.1334e-06
7.08434e-06
1.13017e-05
5.07002e-06
1.38293e-05
3.55992e-06
1.56883e-05
2.40081e-06
1.68919e-05
1.46481e-06
6.53608e-07
-7.85013e-07
1.35103e-05
4.0808e-06
1.10675e-05
1.02976e-05
6.78843e-06
1.57937e-05
4.2398e-06
2.01581e-05
2.71992e-06
2.34582e-05
1.76996e-06
2.58609e-05
1.15715e-06
2.75217e-05
7.40061e-07
2.85542e-05
4.32297e-07
1.81222e-07
1.35103e-05
2.45778e-05
3.13663e-05
3.56061e-05
3.8326e-05
4.0096e-05
4.12531e-05
4.19932e-05
4.24255e-05
)
;

boundaryField
{
    movingWall
    {
        type            calculated;
        value           uniform 0;
    }
    fixedWalls
    {
        type            calculated;
        value           uniform 0;
    }
    frontAndBack
    {
        type            empty;
        value           nonuniform List<scalar> 0();
    }
    procBoundary1to0
    {
        type            processor;
        value           nonuniform List<scalar> 
20
(
-8.85676e-07
-2.30618e-06
-3.51872e-06
-4.61216e-06
-5.63876e-06
-6.62628e-06
-7.57883e-06
-8.47478e-06
-9.26304e-06
-9.85766e-06
-1.01315e-05
-9.90971e-06
-8.96489e-06
-7.01623e-06
-3.7367e-06
1.22592e-06
8.20684e-06
1.74551e-05
2.90266e-05
4.26067e-05
)
;
    }
}


// ************************************************************************* //
