/*--------------------------------*- C++ -*----------------------------------*\
| =========                 |                                                 |
| \\      /  F ield         | OpenFOAM: The Open Source CFD Toolbox           |
|  \\    /   O peration     | Version:  v2106                                 |
|   \\  /    A nd           | Website:  www.openfoam.com                      |
|    \\/     M anipulation  |                                                 |
\*---------------------------------------------------------------------------*/
FoamFile
{
    version     2.0;
    format      ascii;
    arch        "LSB;label=32;scalar=64";
    class       volVectorField;
    location    "0.5";
    object      U;
}
// * * * * * * * * * * * * * * * * * * * * * * * * * * * * * * * * * * * * * //

dimensions      [0 1 -1 0 0 0 0];

internalField   nonuniform List<vector> 
200
(
(0.000253599 -0.000250263 0)
(0.0001415 0.000111539 0)
(-0.0011769 0.000564673 0)
(-0.00348121 0.000885041 0)
(-0.00637776 0.00104576 0)
(-0.00946993 0.00106179 0)
(-0.0124036 0.000957888 0)
(-0.0148857 0.000760465 0)
(-0.0166904 0.000494644 0)
(-0.0176591 0.000184499 0)
(-7.73585e-05 -0.000169102 0)
(-0.00161145 0.00164512 0)
(-0.00569309 0.00361762 0)
(-0.0117195 0.00503518 0)
(-0.0188934 0.00574361 0)
(-0.0264025 0.00576057 0)
(-0.0334714 0.005172 0)
(-0.0394295 0.00409276 0)
(-0.0437469 0.00264775 0)
(-0.0460502 0.000966852 0)
(-0.000528596 0.00109183 0)
(-0.00371154 0.00573681 0)
(-0.0105895 0.0102253 0)
(-0.019993 0.0134086 0)
(-0.0307669 0.0149473 0)
(-0.0418252 0.0148398 0)
(-0.0521236 0.0132566 0)
(-0.0607486 0.0104569 0)
(-0.0669743 0.00674237 0)
(-0.0702878 0.00243889 0)
(-0.000928269 0.00348014 0)
(-0.00569183 0.0122216 0)
(-0.0153028 0.0199231 0)
(-0.0279187 0.0251996 0)
(-0.0419883 0.0275989 0)
(-0.056183 0.0271393 0)
(-0.069257 0.0241105 0)
(-0.0801314 0.0189551 0)
(-0.0879545 0.0121963 0)
(-0.0921254 0.0044052 0)
(-0.00127901 0.00687829 0)
(-0.0075365 0.0209551 0)
(-0.019806 0.0325125 0)
(-0.0355371 0.0401058 0)
(-0.0527469 0.0432931 0)
(-0.0698631 0.0421955 0)
(-0.085469 0.0372799 0)
(-0.0983671 0.0292148 0)
(-0.107627 0.0187783 0)
(-0.112596 0.00681392 0)
(-0.00160761 0.0112163 0)
(-0.00931851 0.0318764 0)
(-0.0242105 0.0479546 0)
(-0.0430049 0.0580752 0)
(-0.0632603 0.0619406 0)
(-0.0831572 0.0598844 0)
(-0.101129 0.0526311 0)
(-0.115898 0.0411279 0)
(-0.126495 0.0264383 0)
(-0.132244 0.00969312 0)
(-0.00194012 0.0164779 0)
(-0.0111216 0.0449763 0)
(-0.0286514 0.0662364 0)
(-0.0504815 0.079063 0)
(-0.0736874 0.0834501 0)
(-0.096207 0.0800777 0)
(-0.116356 0.0700274 0)
(-0.132819 0.0545871 0)
(-0.144636 0.035133 0)
(-0.151146 0.0130849 0)
(-0.00230008 0.0226958 0)
(-0.0130253 0.060303 0)
(-0.0332514 0.0873667 0)
(-0.0580807 0.103 0)
(-0.0840761 0.107669 0)
(-0.108955 0.102565 0)
(-0.13097 0.0892472 0)
(-0.148837 0.0694131 0)
(-0.161669 0.044773 0)
(-0.168871 0.0170201 0)
(-0.00271166 0.0299478 0)
(-0.0151081 0.0779586 0)
(-0.0381149 0.111359 0)
(-0.0658487 0.129753 0)
(-0.0943273 0.134321 0)
(-0.1211 0.126977 0)
(-0.144444 0.109905 0)
(-0.163214 0.0852839 0)
(-0.176688 0.0551683 0)
(-0.184408 0.0214871 0)
(-0.00320765 0.0383603 0)
(-0.0174662 0.0980911 0)
(-0.043341 0.138192 0)
(-0.0737565 0.159049 0)
(-0.10416 0.162904 0)
(-0.132032 0.152676 0)
(-0.155826 0.131344 0)
(-0.174679 0.101642 0)
(-0.188168 0.0659588 0)
(-0.196068 0.0263898 0)
(-0.00384394 0.0481292 0)
(-0.0202461 0.120895 0)
(-0.0490464 0.167754 0)
(-0.0816861 0.190369 0)
(-0.113053 0.19256 0)
(-0.140746 0.178618 0)
(-0.163621 0.152515 0)
(-0.181309 0.117595 0)
(-0.193846 0.0765361 0)
(-0.20136 0.0314946 0)
(-0.00472534 0.0595716 0)
(-0.0236945 0.146619 0)
(-0.0553826 0.199758 0)
(-0.0893758 0.222793 0)
(-0.120121 0.221895 0)
(-0.145675 0.203191 0)
(-0.165629 0.171842 0)
(-0.18037 0.131812 0)
(-0.19058 0.0859711 0)
(-0.196862 0.0363768 0)
(-0.00605154 0.0732287 0)
(-0.0282256 0.175564 0)
(-0.0625082 0.233572 0)
(-0.0962561 0.254749 0)
(-0.123856 0.248734 0)
(-0.144396 0.224029 0)
(-0.158669 0.187109 0)
(-0.168105 0.142464 0)
(-0.174199 0.0929701 0)
(-0.178117 0.0403795 0)
(-0.00819201 0.0900465 0)
(-0.0344825 0.208021 0)
(-0.0704116 0.267885 0)
(-0.101022 0.283608 0)
(-0.121573 0.269813 0)
(-0.133105 0.237843 0)
(-0.13816 0.195406 0)
(-0.139459 0.147235 0)
(-0.139364 0.0959103 0)
(-0.139592 0.04262 0)
(-0.0117674 0.111636 0)
(-0.0432594 0.243962 0)
(-0.0782965 0.300035 0)
(-0.100626 0.305094 0)
(-0.108349 0.280462 0)
(-0.105728 0.240384 0)
(-0.0975257 0.193283 0)
(-0.0877666 0.14355 0)
(-0.0794964 0.0930367 0)
(-0.0747806 0.0420953 0)
(-0.0175493 0.140659 0)
(-0.0547642 0.282146 0)
(-0.0827854 0.324719 0)
(-0.0880789 0.312475 0)
(-0.0751062 0.274457 0)
(-0.0525879 0.226772 0)
(-0.0274546 0.17729 0)
(-0.00451011 0.129136 0)
(0.0131037 0.0829134 0)
(0.023445 0.0379471 0)
(-0.0254497 0.181711 0)
(-0.0657743 0.317771 0)
(-0.0733323 0.331363 0)
(-0.0480757 0.295401 0)
(-0.00557621 0.244213 0)
(0.0412213 0.192381 0)
(0.0846566 0.145048 0)
(0.120541 0.102972 0)
(0.146707 0.0651383 0)
(0.162052 0.0298916 0)
(-0.029649 0.239176 0)
(-0.0608412 0.335768 0)
(-0.021942 0.300503 0)
(0.0505428 0.240128 0)
(0.127574 0.182949 0)
(0.19701 0.13539 0)
(0.254339 0.0973996 0)
(0.298254 0.0668515 0)
(0.328828 0.0413556 0)
(0.34647 0.0187787 0)
(0.00808309 0.281861 0)
(0.0197831 0.294972 0)
(0.139066 0.210973 0)
(0.26446 0.143477 0)
(0.364368 0.0971862 0)
(0.440365 0.0657777 0)
(0.496744 0.0442377 0)
(0.536875 0.0288862 0)
(0.563448 0.017199 0)
(0.578308 0.0074848 0)
(0.299604 0.146091 0)
(0.396272 0.127503 0)
(0.55742 0.0760895 0)
(0.674487 0.0437233 0)
(0.743889 0.0255721 0)
(0.787154 0.0152422 0)
(0.815486 0.00921237 0)
(0.833956 0.00550944 0)
(0.845386 0.00302719 0)
(0.851372 0.00114934 0)
)
;

boundaryField
{
    movingWall
    {
        type            fixedValue;
        value           uniform (1 0 0);
    }
    fixedWalls
    {
        type            noSlip;
    }
    frontAndBack
    {
        type            empty;
    }
    procBoundary1to0
    {
        type            processor;
        value           nonuniform List<vector> 
20
(
(-0.0177031 -0.000145428 0)
(-0.0461326 -0.000813535 0)
(-0.0704058 -0.00210689 0)
(-0.09231 -0.00380845 0)
(-0.112905 -0.00578103 0)
(-0.132756 -0.0079171 0)
(-0.151954 -0.0100874 0)
(-0.170066 -0.0121344 0)
(-0.186059 -0.0138756 0)
(-0.198186 -0.0151134 0)
(-0.203856 -0.0156595 0)
(-0.199501 -0.0153711 0)
(-0.180483 -0.0141989 0)
(-0.141106 -0.0122333 0)
(-0.0747983 -0.00972905 0)
(0.0254036 -0.0070737 0)
(0.165946 -0.00467173 0)
(0.351379 -0.00279426 0)
(0.582382 -0.00149417 0)
(0.852667 -0.000499396 0)
)
;
    }
}


// ************************************************************************* //
