/*--------------------------------*- C++ -*----------------------------------*\
| =========                 |                                                 |
| \\      /  F ield         | OpenFOAM: The Open Source CFD Toolbox           |
|  \\    /   O peration     | Version:  v2106                                 |
|   \\  /    A nd           | Website:  www.openfoam.com                      |
|    \\/     M anipulation  |                                                 |
\*---------------------------------------------------------------------------*/
FoamFile
{
    version     2.0;
    format      ascii;
    arch        "LSB;label=32;scalar=64";
    class       volScalarField;
    location    "0.1";
    object      p;
}
// * * * * * * * * * * * * * * * * * * * * * * * * * * * * * * * * * * * * * //

dimensions      [0 2 -2 0 0 0 0];

internalField   nonuniform List<scalar> 
200
(
-0.0431627
-0.0488962
-0.0559062
-0.0612408
-0.0631789
-0.0609577
-0.0545211
-0.0443104
-0.0311098
-0.0159434
-0.037483
-0.0433852
-0.0488704
-0.0525224
-0.0535174
-0.0513234
-0.0458701
-0.0374707
-0.0267149
-0.0143968
-0.0300596
-0.0382331
-0.0441602
-0.0475106
-0.0483038
-0.0462627
-0.0413909
-0.0339856
-0.0245517
-0.0137587
-0.0233755
-0.0346546
-0.0420106
-0.0458261
-0.0468205
-0.0449445
-0.0403093
-0.033257
-0.0242789
-0.0139938
-0.0190892
-0.0336292
-0.0426893
-0.0471846
-0.048437
-0.0465953
-0.0418825
-0.0347075
-0.0255787
-0.0151021
-0.0184257
-0.0362586
-0.0470865
-0.0522604
-0.0536498
-0.0515845
-0.0464002
-0.0385851
-0.0286846
-0.0173148
-0.0224505
-0.0436255
-0.056183
-0.0618811
-0.0631363
-0.060463
-0.0543183
-0.04528
-0.0339417
-0.0209413
-0.0322717
-0.056886
-0.0710484
-0.0769607
-0.0776485
-0.0738438
-0.0661447
-0.0552294
-0.0417426
-0.0263417
-0.0491951
-0.0773988
-0.0929373
-0.0985639
-0.0980515
-0.0924191
-0.0824408
-0.0689075
-0.0525083
-0.0339014
-0.0748625
-0.106849
-0.123361
-0.127918
-0.125288
-0.116894
-0.103739
-0.0867378
-0.066605
-0.0439601
-0.111442
-0.147413
-0.164165
-0.166399
-0.160295
-0.147862
-0.130397
-0.108945
-0.0842047
-0.0566897
-0.161968
-0.202023
-0.217631
-0.215485
-0.203864
-0.185609
-0.162386
-0.135342
-0.105085
-0.0719174
-0.231039
-0.274808
-0.28659
-0.276636
-0.256389
-0.229824
-0.19899
-0.165052
-0.128385
-0.0889139
-0.32631
-0.371834
-0.374475
-0.350985
-0.317439
-0.279154
-0.238426
-0.196198
-0.152352
-0.106202
-0.461677
-0.502239
-0.485054
-0.43858
-0.384959
-0.330559
-0.277378
-0.225604
-0.174193
-0.1215
-0.663012
-0.679427
-0.621509
-0.537127
-0.454226
-0.378633
-0.310686
-0.248779
-0.190229
-0.131989
-0.978604
-0.921372
-0.78475
-0.641069
-0.517567
-0.415814
-0.33194
-0.260713
-0.196774
-0.135178
-1.51933
-1.24968
-0.963699
-0.734697
-0.560664
-0.430875
-0.333297
-0.256435
-0.191074
-0.130037
-2.58275
-1.67376
-1.08779
-0.754438
-0.539286
-0.395602
-0.297937
-0.226837
-0.169249
-0.116513
-4.40987
-2.08794
-1.01703
-0.606829
-0.401585
-0.283875
-0.213741
-0.167225
-0.130705
-0.096512
)
;

boundaryField
{
    movingWall
    {
        type            zeroGradient;
    }
    fixedWalls
    {
        type            zeroGradient;
    }
    frontAndBack
    {
        type            empty;
    }
    procBoundary1to0
    {
        type            processor;
        value           nonuniform List<scalar> 
20
(
-2.86976e-07
-0.00145442
-0.0024019
-0.00313336
-0.00398604
-0.00518818
-0.00700846
-0.00976922
-0.0138173
-0.0194704
-0.0269203
-0.0360866
-0.0464425
-0.0568746
-0.0656988
-0.0709889
-0.0713708
-0.0673136
-0.0620595
-0.059463
)
;
    }
}


// ************************************************************************* //
