/*--------------------------------*- C++ -*----------------------------------*\
| =========                 |                                                 |
| \\      /  F ield         | OpenFOAM: The Open Source CFD Toolbox           |
|  \\    /   O peration     | Version:  v2106                                 |
|   \\  /    A nd           | Website:  www.openfoam.com                      |
|    \\/     M anipulation  |                                                 |
\*---------------------------------------------------------------------------*/
FoamFile
{
    version     2.0;
    format      ascii;
    arch        "LSB;label=32;scalar=64";
    class       volVectorField;
    location    "0.1";
    object      U;
}
// * * * * * * * * * * * * * * * * * * * * * * * * * * * * * * * * * * * * * //

dimensions      [0 1 -1 0 0 0 0];

internalField   nonuniform List<vector> 
200
(
(0.000249257 -0.000245911 0)
(0.000138095 0.00011068 0)
(-0.0011599 0.000556752 0)
(-0.00342748 0.000871802 0)
(-0.00627673 0.00102965 0)
(-0.00931758 0.00104515 0)
(-0.0122021 0.000942777 0)
(-0.0146428 0.000748586 0)
(-0.0164178 0.000487264 0)
(-0.017372 0.000182373 0)
(-7.65196e-05 -0.000165596 0)
(-0.00158586 0.00161979 0)
(-0.00560076 0.00355993 0)
(-0.0115271 0.00495293 0)
(-0.01858 0.00564812 0)
(-0.0259607 0.00566365 0)
(-0.032908 0.0050846 0)
(-0.0387637 0.00402416 0)
(-0.0430084 0.00260501 0)
(-0.0452756 0.000954282 0)
(-0.000520293 0.00107455 0)
(-0.00365157 0.00564418 0)
(-0.010418 0.0100578 0)
(-0.0196673 0.0131854 0)
(-0.0302621 0.0146949 0)
(-0.0411344 0.0145866 0)
(-0.0512585 0.0130296 0)
(-0.0597377 0.0102794 0)
(-0.0658602 0.00663209 0)
(-0.069123 0.00240686 0)
(-0.000913782 0.00342403 0)
(-0.0056033 0.012025 0)
(-0.0150664 0.0195995 0)
(-0.027487 0.0247845 0)
(-0.0413362 0.0271382 0)
(-0.0553059 0.0266819 0)
(-0.0681713 0.0237029 0)
(-0.0788724 0.0186375 0)
(-0.0865734 0.0119996 0)
(-0.0906846 0.00434865 0)
(-0.00126061 0.00677018 0)
(-0.00742991 0.0206283 0)
(-0.0195293 0.0320014 0)
(-0.0350414 0.039467 0)
(-0.0520086 0.0425943 0)
(-0.0688805 0.0415075 0)
(-0.0842615 0.0366699 0)
(-0.0969738 0.0287411 0)
(-0.106103 0.0184857 0)
(-0.111008 0.00673034 0)
(-0.00158782 0.0110495 0)
(-0.00920634 0.0314067 0)
(-0.0239232 0.047242 0)
(-0.0424951 0.0572 0)
(-0.0625071 0.0609933 0)
(-0.0821607 0.0589579 0)
(-0.09991 0.0518129 0)
(-0.114495 0.040494 0)
(-0.124962 0.0260471 0)
(-0.130647 0.00958115 0)
(-0.00192145 0.0162528 0)
(-0.0110168 0.0443662 0)
(-0.0283845 0.0653281 0)
(-0.0500103 0.0779601 0)
(-0.0729936 0.082265 0)
(-0.0952912 0.0789237 0)
(-0.115237 0.0690109 0)
(-0.131532 0.0538003 0)
(-0.143229 0.0346469 0)
(-0.149679 0.0129439 0)
(-0.00228487 0.0224195 0)
(-0.0129401 0.0595704 0)
(-0.0330347 0.0862882 0)
(-0.057698 0.1017 0)
(-0.0835122 0.106278 0)
(-0.10821 0.101213 0)
(-0.130057 0.0880578 0)
(-0.147785 0.0684918 0)
(-0.160515 0.0442016 0)
(-0.167662 0.0168499 0)
(-0.00270191 0.0296335 0)
(-0.015053 0.0771351 0)
(-0.0379737 0.110154 0)
(-0.0655972 0.128304 0)
(-0.0939534 0.132773 0)
(-0.120601 0.125475 0)
(-0.143828 0.108582 0)
(-0.162497 0.0842562 0)
(-0.175896 0.0545268 0)
(-0.18357 0.0212886 0)
(-0.00320481 0.0380262 0)
(-0.0174486 0.0972194 0)
(-0.0432932 0.136917 0)
(-0.0736666 0.157517 0)
(-0.104019 0.161266 0)
(-0.131834 0.151082 0)
(-0.155571 0.129937 0)
(-0.174371 0.100545 0)
(-0.187816 0.065267 0)
(-0.195684 0.0261648 0)
(-0.00384871 0.0477967 0)
(-0.0202697 0.120024 0)
(-0.0491006 0.166477 0)
(-0.081772 0.188828 0)
(-0.113165 0.190906 0)
(-0.140876 0.177002 0)
(-0.16376 0.151081 0)
(-0.181448 0.11647 0)
(-0.193977 0.0758183 0)
(-0.201475 0.0312471 0)
(-0.00473751 0.0592626 0)
(-0.023758 0.1458 0)
(-0.0555357 0.198546 0)
(-0.0896325 0.221319 0)
(-0.12048 0.220301 0)
(-0.146125 0.201624 0)
(-0.166155 0.170444 0)
(-0.18095 0.130706 0)
(-0.19119 0.0852548 0)
(-0.197476 0.0361138 0)
(-0.00606985 0.0729632 0)
(-0.0283224 0.174844 0)
(-0.0627444 0.232488 0)
(-0.0966575 0.253412 0)
(-0.124426 0.247273 0)
(-0.145125 0.22258 0)
(-0.159534 0.185806 0)
(-0.169076 0.141423 0)
(-0.175239 0.0922851 0)
(-0.179182 0.0401115 0)
(-0.0082141 0.0898397 0)
(-0.0346008 0.207433 0)
(-0.0707033 0.266977 0)
(-0.101523 0.282466 0)
(-0.122292 0.268546 0)
(-0.134036 0.236571 0)
(-0.139278 0.194251 0)
(-0.140729 0.146302 0)
(-0.140738 0.095287 0)
(-0.141015 0.0423612 0)
(-0.01179 0.111495 0)
(-0.0433834 0.243526 0)
(-0.0786068 0.299332 0)
(-0.101167 0.304183 0)
(-0.109136 0.279431 0)
(-0.10676 0.239334 0)
(-0.0987819 0.192318 0)
(-0.0892094 0.142764 0)
(-0.0810733 0.0925037 0)
(-0.0764279 0.0418627 0)
(-0.0175685 0.140582 0)
(-0.0548758 0.281862 0)
(-0.0830734 0.324225 0)
(-0.0885925 0.311807 0)
(-0.0758711 0.273682 0)
(-0.0536098 0.225969 0)
(-0.0287187 0.176544 0)
(-0.0059809 0.128524 0)
(0.0114791 0.0824938 0)
(0.0217333 0.0377573 0)
(-0.025462 0.181686 0)
(-0.065857 0.317618 0)
(-0.0735606 0.331059 0)
(-0.048502 0.294966 0)
(-0.00623462 0.24369 0)
(0.0403164 0.191831 0)
(0.083513 0.144533 0)
(0.119189 0.102547 0)
(0.145196 0.0648455 0)
(0.160448 0.0297571 0)
(-0.0296522 0.239183 0)
(-0.0608847 0.335708 0)
(-0.0220865 0.300353 0)
(0.0502456 0.239892 0)
(0.127085 0.182656 0)
(0.196308 0.135076 0)
(0.253427 0.0971037 0)
(0.297155 0.0666077 0)
(0.327586 0.0411888 0)
(0.345142 0.0187034 0)
(0.008088 0.281877 0)
(0.0197776 0.294965 0)
(0.139008 0.210925 0)
(0.264305 0.14339 0)
(0.36408 0.0970722 0)
(0.439924 0.0656538 0)
(0.496148 0.0441212 0)
(0.536143 0.0287915 0)
(0.562611 0.0171361 0)
(0.577408 0.007459 0)
(0.299611 0.146098 0)
(0.396286 0.127508 0)
(0.557422 0.0760851 0)
(0.674455 0.0437098 0)
(0.743801 0.0255524 0)
(0.787001 0.0152204 0)
(0.815268 0.00919211 0)
(0.833681 0.00549366 0)
(0.845069 0.00301765 0)
(0.851033 0.00114677 0)
)
;

boundaryField
{
    movingWall
    {
        type            fixedValue;
        value           uniform (1 0 0);
    }
    fixedWalls
    {
        type            noSlip;
    }
    frontAndBack
    {
        type            empty;
    }
    procBoundary1to0
    {
        type            processor;
        value           nonuniform List<vector> 
20
(
(-0.0174176 -0.000142012 0)
(-0.0453624 -0.000794418 0)
(-0.0692476 -0.00205722 0)
(-0.0908775 -0.00371892 0)
(-0.111325 -0.00564714 0)
(-0.131166 -0.00773892 0)
(-0.150489 -0.00986986 0)
(-0.168855 -0.0118874 0)
(-0.185211 -0.0136127 0)
(-0.197786 -0.014851 0)
(-0.203949 -0.0154141 0)
(-0.200091 -0.0151573 0)
(-0.181528 -0.0140266 0)
(-0.142517 -0.0121059 0)
(-0.0764453 -0.00964296 0)
(0.0236798 -0.00701993 0)
(0.164321 -0.00463925 0)
(0.350029 -0.00277428 0)
(0.581468 -0.00148236 0)
(0.852325 -0.000495182 0)
)
;
    }
}


// ************************************************************************* //
