/*--------------------------------*- C++ -*----------------------------------*\
| =========                 |                                                 |
| \\      /  F ield         | OpenFOAM: The Open Source CFD Toolbox           |
|  \\    /   O peration     | Version:  v2106                                 |
|   \\  /    A nd           | Website:  www.openfoam.com                      |
|    \\/     M anipulation  |                                                 |
\*---------------------------------------------------------------------------*/
FoamFile
{
    version     2.0;
    format      ascii;
    arch        "LSB;label=32;scalar=64";
    class       volScalarField;
    location    "0.1";
    object      p;
}
// * * * * * * * * * * * * * * * * * * * * * * * * * * * * * * * * * * * * * //

dimensions      [0 2 -2 0 0 0 0];

internalField   nonuniform List<scalar> 
200
(
-2.86976e-07
0.0154375
0.029081
0.0397417
0.0464708
0.0487278
0.0465812
0.0409271
0.0336921
0.0279655
-0.00145442
0.0110935
0.0222247
0.0310081
0.0367153
0.0389475
0.0377812
0.0338536
0.0281736
0.0223042
-0.0024019
0.00864646
0.0185018
0.0263469
0.0315227
0.0336299
0.0326579
0.0289869
0.0228079
0.0146524
-0.00313336
0.00749176
0.0170411
0.0247105
0.0298075
0.031843
0.0306709
0.0264467
0.0187069
0.00735438
-0.00398604
0.00697449
0.0169319
0.0250388
0.030511
0.0327185
0.0313517
0.0263586
0.0167171
0.00190089
-0.00518818
0.00688436
0.018011
0.0272564
0.0336956
0.036509
0.0351878
0.0294649
0.0177951
-0.000672366
-0.00700846
0.00701273
0.0201616
0.0313805
0.0395572
0.0436264
0.0428239
0.036623
0.0229126
0.000539046
-0.00976922
0.00709882
0.0232258
0.0374103
0.0483099
0.0545466
0.0550171
0.0488389
0.0331969
0.00656949
-0.0138173
0.00686078
0.0270364
0.0453615
0.0602292
0.0698723
0.072731
0.067405
0.0501167
0.0188096
-0.0194704
0.00602835
0.0314282
0.055262
0.0756449
0.090344
0.0971918
0.0940258
0.0756816
0.0392423
-0.0269203
0.00440855
0.0362701
0.0671542
0.094928
0.116839
0.12994
0.130965
0.1127
0.070762
-0.0360866
0.00199356
0.0415286
0.0811126
0.118475
0.150355
0.172874
0.181228
0.165152
0.117688
-0.0464425
-0.000909678
0.0473422
0.0972563
0.146662
0.191948
0.228252
0.248764
0.238757
0.186686
-0.0568746
-0.00359249
0.0540432
0.115684
0.179688
0.242506
0.298524
0.33861
0.341835
0.288604
-0.0656988
-0.00502483
0.0619962
0.136193
0.217114
0.30212
0.38567
0.456658
0.486506
0.442037
-0.0709889
-0.0042214
0.071183
0.157758
0.257152
0.369092
0.489998
0.608652
0.689522
0.678948
-0.0713708
-0.00094962
0.0805746
0.177943
0.296039
0.439152
0.608891
0.798148
0.971963
1.05401
-0.0673136
0.00275438
0.0862126
0.190275
0.324201
0.499657
0.728159
1.01609
1.35996
1.68666
-0.0620595
7.19218e-05
0.0765147
0.176045
0.311988
0.505044
0.78333
1.19341
1.8684
2.88079
-0.059463
-0.0150067
0.0420156
0.119144
0.229768
0.39935
0.675335
1.18268
2.36786
4.80524
)
;

boundaryField
{
    movingWall
    {
        type            zeroGradient;
    }
    fixedWalls
    {
        type            zeroGradient;
    }
    frontAndBack
    {
        type            empty;
    }
    procBoundary0to1
    {
        type            processor;
        value           nonuniform List<scalar> 
20
(
-0.0159434
-0.0143968
-0.0137587
-0.0139938
-0.0151021
-0.0173148
-0.0209413
-0.0263417
-0.0339014
-0.0439601
-0.0566897
-0.0719174
-0.0889139
-0.106202
-0.1215
-0.131989
-0.135178
-0.130037
-0.116513
-0.096512
)
;
    }
}


// ************************************************************************* //
