/*--------------------------------*- C++ -*----------------------------------*\
| =========                 |                                                 |
| \\      /  F ield         | OpenFOAM: The Open Source CFD Toolbox           |
|  \\    /   O peration     | Version:  v2106                                 |
|   \\  /    A nd           | Website:  www.openfoam.com                      |
|    \\/     M anipulation  |                                                 |
\*---------------------------------------------------------------------------*/
FoamFile
{
    version     2.0;
    format      ascii;
    arch        "LSB;label=32;scalar=64";
    class       surfaceScalarField;
    location    "0.1";
    object      phi;
}
// * * * * * * * * * * * * * * * * * * * * * * * * * * * * * * * * * * * * * //

dimensions      [0 3 -1 0 0 0 0];

oriented        oriented;

internalField   nonuniform List<scalar> 
370
(
-8.50512e-07
-2.08264e-08
-7.84852e-07
-6.56603e-08
-6.79474e-07
-1.05378e-07
-5.43737e-07
-1.35737e-07
-3.91262e-07
-1.52475e-07
-2.39488e-07
-1.51775e-07
-1.08436e-07
-1.31052e-07
-1.83527e-08
-9.00829e-08
1.53892e-08
-3.37421e-08
1.53889e-08
-2.21662e-06
-7.17431e-08
-2.0589e-06
-2.23386e-07
-1.80683e-06
-3.57445e-07
-1.48244e-06
-4.60127e-07
-1.11679e-06
-5.18124e-07
-7.48322e-07
-5.20246e-07
-4.19382e-07
-4.59993e-07
-1.70387e-07
-3.39078e-07
-3.04495e-08
-1.7368e-07
-1.5061e-08
-3.38744e-06
-1.44929e-07
-3.16057e-06
-4.50254e-07
-2.79713e-06
-7.20883e-07
-2.32715e-06
-9.30114e-07
-1.79274e-06
-1.05254e-06
-1.24582e-06
-1.06717e-06
-7.4368e-07
-9.62128e-07
-3.4212e-07
-7.40639e-07
-8.61501e-08
-4.2965e-07
-1.01211e-07
-4.45074e-06
-2.34508e-07
-4.16849e-06
-7.32501e-07
-3.71309e-06
-1.17628e-06
-3.11928e-06
-1.52393e-06
-2.43644e-06
-1.73538e-06
-1.72651e-06
-1.7771e-06
-1.05975e-06
-1.62889e-06
-5.08177e-07
-1.29221e-06
-1.37443e-07
-8.00384e-07
-2.38655e-07
-5.45901e-06
-3.35071e-07
-5.13123e-06
-1.06028e-06
-4.59624e-06
-1.71127e-06
-3.89096e-06
-2.22921e-06
-3.06954e-06
-2.5568e-06
-2.20227e-06
-2.64436e-06
-1.37236e-06
-2.4588e-06
-6.7016e-07
-1.99441e-06
-1.85452e-07
-1.28509e-06
-4.24107e-07
-6.44094e-06
-4.40723e-07
-6.07685e-06
-1.42438e-06
-5.4729e-06
-2.31522e-06
-4.66577e-06
-3.03634e-06
-3.71207e-06
-3.5105e-06
-2.68912e-06
-3.66732e-06
-1.69337e-06
-3.45454e-06
-8.35787e-07
-2.852e-06
-2.33683e-07
-1.8872e-06
-6.5779e-07
-7.40177e-06
-5.44473e-07
-7.01247e-06
-1.81368e-06
-6.35264e-06
-2.97505e-06
-5.4558e-06
-3.93317e-06
-4.37803e-06
-4.58827e-06
-3.20146e-06
-4.84389e-06
-2.03554e-06
-4.62046e-06
-1.01397e-06
-3.87357e-06
-2.85853e-07
-2.61531e-06
-9.43643e-07
-8.32077e-06
-6.37998e-07
-7.92132e-06
-2.21313e-06
-7.22484e-06
-3.67153e-06
-6.25784e-06
-4.90018e-06
-5.07137e-06
-5.77474e-06
-3.7485e-06
-6.16676e-06
-2.40977e-06
-5.9592e-06
-1.21324e-06
-5.0701e-06
-3.45566e-07
-3.48298e-06
-1.28921e-06
-9.14703e-06
-7.11891e-07
-8.75798e-06
-2.60218e-06
-8.05359e-06
-4.37592e-06
-7.04833e-06
-5.90544e-06
-5.78171e-06
-7.04136e-06
-4.33103e-06
-7.61744e-06
-2.82331e-06
-7.46692e-06
-1.44131e-06
-6.4521e-06
-4.16426e-07
-4.50786e-06
-1.70564e-06
-9.79345e-06
-7.56502e-07
-9.4418e-06
-2.95383e-06
-8.77076e-06
-5.04696e-06
-7.77668e-06
-6.89951e-06
-6.47863e-06
-8.33941e-06
-4.93765e-06
-9.15841e-06
-3.27829e-06
-9.12628e-06
-1.70513e-06
-8.02526e-06
-5.02526e-07
-5.71046e-06
-2.20816e-06
-1.01297e-05
-7.63464e-07
-9.84891e-06
-3.23465e-06
-9.26716e-06
-5.62871e-06
-8.35623e-06
-7.81044e-06
-7.10366e-06
-9.59199e-06
-5.5392e-06
-1.07229e-05
-3.76927e-06
-1.08962e-05
-2.01121e-06
-9.78332e-06
-6.09335e-07
-7.11234e-06
-2.8175e-06
-9.97542e-06
-7.27861e-07
-9.80377e-06
-3.4063e-06
-9.38214e-06
-6.05035e-06
-8.65236e-06
-8.54022e-06
-7.55848e-06
-1.06859e-05
-6.0794e-06
-1.2202e-05
-4.27857e-06
-1.2697e-05
-2.36546e-06
-1.16964e-05
-7.45186e-07
-8.73261e-06
-3.56268e-06
-9.09482e-06
-6.50682e-07
-9.07194e-06
-3.42919e-06
-8.89271e-06
-6.22958e-06
-8.46755e-06
-8.96537e-06
-7.68763e-06
-1.14658e-05
-6.45887e-06
-1.34307e-05
-4.76619e-06
-1.43897e-05
-2.77131e-06
-1.36913e-05
-9.2361e-07
-1.05803e-05
-4.48629e-06
-7.19705e-06
-5.40712e-07
-7.35715e-06
-3.26908e-06
-7.50443e-06
-6.0823e-06
-7.52413e-06
-8.94568e-06
-7.25351e-06
-1.17364e-05
-6.50754e-06
-1.41767e-05
-5.14839e-06
-1.57489e-05
-3.22204e-06
-1.56177e-05
-1.16627e-06
-1.26361e-05
-5.65257e-06
-3.94536e-06
-4.14426e-07
-4.30759e-06
-2.90685e-06
-4.84865e-06
-5.54124e-06
-5.44683e-06
-8.3475e-06
-5.90192e-06
-1.12813e-05
-5.93726e-06
-1.41413e-05
-5.25163e-06
-1.64345e-05
-3.67531e-06
-1.7194e-05
-1.50256e-06
-1.48088e-05
-7.15512e-06
1.01781e-06
-2.92211e-07
4.61844e-07
-2.35089e-06
-4.93776e-07
-4.58562e-06
-1.75237e-06
-7.0889e-06
-3.11942e-06
-9.91426e-06
-4.26441e-06
-1.29963e-05
-4.7165e-06
-1.59824e-05
-3.97736e-06
-1.79331e-05
-1.94777e-06
-1.68384e-05
-9.1029e-06
8.02428e-06
-1.90387e-07
7.32387e-06
-1.65048e-06
6.01936e-06
-3.28111e-06
4.14193e-06
-5.21148e-06
1.80888e-06
-7.58121e-06
-6.94325e-07
-1.04931e-05
-2.81263e-06
-1.38641e-05
-3.6722e-06
-1.70736e-05
-2.41442e-06
-1.80962e-05
-1.15173e-05
1.73101e-05
-1.12398e-07
1.65679e-05
-9.08255e-07
1.5111e-05
-1.82417e-06
1.28758e-05
-2.97634e-06
9.82402e-06
-4.52938e-06
6.03473e-06
-6.70385e-06
1.8952e-06
-9.72459e-06
-1.56813e-06
-1.36102e-05
-2.46078e-06
-1.72035e-05
-1.39781e-05
2.89174e-05
-4.86177e-08
2.82966e-05
-2.87451e-07
2.70443e-05
-5.71786e-07
2.50234e-05
-9.55517e-07
2.20269e-05
-1.53284e-06
1.77978e-05
-2.47473e-06
1.21614e-05
-4.08822e-06
5.47243e-06
-6.92126e-06
-1.30575e-07
-1.16005e-05
-1.41087e-05
4.2541e-05
4.22536e-05
4.16818e-05
4.07263e-05
3.91934e-05
3.67187e-05
3.26305e-05
2.57092e-05
1.41087e-05
)
;

boundaryField
{
    movingWall
    {
        type            calculated;
        value           uniform 0;
    }
    fixedWalls
    {
        type            calculated;
        value           uniform 0;
    }
    frontAndBack
    {
        type            empty;
        value           nonuniform List<scalar> 0();
    }
    procBoundary0to1
    {
        type            processor;
        value           nonuniform List<scalar> 
20
(
8.71341e-07
2.26754e-06
3.46063e-06
4.54032e-06
5.55957e-06
6.5466e-06
7.50552e-06
8.4143e-06
9.22092e-06
9.83806e-06
1.01367e-05
9.93982e-06
9.01764e-06
7.08708e-06
3.81907e-06
-1.14002e-06
-8.1261e-06
-1.73881e-05
-2.89812e-05
-4.25896e-05
)
;
    }
}


// ************************************************************************* //
