/*--------------------------------*- C++ -*----------------------------------*\
| =========                 |                                                 |
| \\      /  F ield         | OpenFOAM: The Open Source CFD Toolbox           |
|  \\    /   O peration     | Version:  v2106                                 |
|   \\  /    A nd           | Website:  www.openfoam.com                      |
|    \\/     M anipulation  |                                                 |
\*---------------------------------------------------------------------------*/
FoamFile
{
    version     2.0;
    format      ascii;
    arch        "LSB;label=32;scalar=64";
    class       volVectorField;
    location    "0.1";
    object      U;
}
// * * * * * * * * * * * * * * * * * * * * * * * * * * * * * * * * * * * * * //

dimensions      [0 1 -1 0 0 0 0];

internalField   nonuniform List<vector> 
200
(
(-0.0174176 -0.000142012 0)
(-0.0165385 -0.00045994 0)
(-0.0147962 -0.00074261 0)
(-0.0123353 -0.000958489 0)
(-0.00938713 -0.00107434 0)
(-0.00626678 -0.00105837 0)
(-0.00335747 -0.00088609 0)
(-0.00107604 -0.000550105 0)
(0.000190632 -9.08073e-05 0)
(0.000263268 0.000257811 0)
(-0.0453624 -0.000794418 0)
(-0.0432388 -0.00249852 0)
(-0.039059 -0.00400506 0)
(-0.0331688 -0.00515431 0)
(-0.026104 -0.00578883 0)
(-0.0185725 -0.00577195 0)
(-0.0114002 -0.00501852 0)
(-0.00543803 -0.00353969 0)
(-0.00147493 -0.00154066 0)
(-4.3134e-05 0.000221612 0)
(-0.0692476 -0.00205722 0)
(-0.0661948 -0.00639919 0)
(-0.0601771 -0.0102384 0)
(-0.0516671 -0.0131854 0)
(-0.0413939 -0.0148684 0)
(-0.0303149 -0.0149797 0)
(-0.0195415 -0.0133474 0)
(-0.0102177 -0.0100309 0)
(-0.00350033 -0.00547592 0)
(-0.000471029 -0.000939045 0)
(-0.0908775 -0.00371892 0)
(-0.0870996 -0.0115701 0)
(-0.0795898 -0.0185401 0)
(-0.0688907 -0.023953 0)
(-0.05585 -0.027167 0)
(-0.0415984 -0.0276527 0)
(-0.0274717 -0.0251084 0)
(-0.0148893 -0.0196025 0)
(-0.0054317 -0.0117629 0)
(-0.000850502 -0.00318377 0)
(-0.111325 -0.00564714 0)
(-0.106982 -0.0177169 0)
(-0.0982141 -0.0285009 0)
(-0.0855866 -0.0369994 0)
(-0.0700125 -0.0422521 0)
(-0.0527497 -0.0434469 0)
(-0.0353379 -0.0400776 0)
(-0.0194928 -0.0321323 0)
(-0.00728077 -0.0203122 0)
(-0.0011892 -0.00641416 0)
(-0.131166 -0.00773892 0)
(-0.126416 -0.0246813 0)
(-0.116599 -0.0399426 0)
(-0.102259 -0.05217 0)
(-0.0843209 -0.0600323 0)
(-0.0641303 -0.0623534 0)
(-0.0434176 -0.0583146 0)
(-0.0242207 -0.0476978 0)
(-0.00915768 -0.0311522 0)
(-0.00152182 -0.0105953 0)
(-0.150489 -0.00986986 0)
(-0.145521 -0.0322775 0)
(-0.134911 -0.0526563 0)
(-0.119125 -0.0692834 0)
(-0.0990407 -0.0804009 0)
(-0.0760327 -0.0843692 0)
(-0.0519928 -0.0799144 0)
(-0.029297 -0.0664449 0)
(-0.0111896 -0.044406 0)
(-0.0018844 -0.015768 0)
(-0.168855 -0.0118874 0)
(-0.163911 -0.040252 0)
(-0.152866 -0.0663351 0)
(-0.136043 -0.0880445 0)
(-0.114184 -0.103147 0)
(-0.0886019 -0.109424 0)
(-0.0612831 -0.104964 0)
(-0.0349316 -0.0885788 0)
(-0.0135029 -0.0602981 0)
(-0.00231236 -0.0220473 0)
(-0.185211 -0.0136127 0)
(-0.180601 -0.0482562 0)
(-0.169634 -0.0805157 0)
(-0.152409 -0.107964 0)
(-0.129413 -0.127863 0)
(-0.101758 -0.137293 0)
(-0.071396 -0.13348 0)
(-0.0413004 -0.114332 0)
(-0.0162234 -0.0791467 0)
(-0.00284357 -0.0296203 0)
(-0.197786 -0.014851 0)
(-0.193883 -0.0558188 0)
(-0.183697 -0.0945129 0)
(-0.167015 -0.128256 0)
(-0.143913 -0.153814 0)
(-0.115097 -0.16746 0)
(-0.0822738 -0.165293 0)
(-0.0485349 -0.143894 0)
(-0.0194879 -0.101343 0)
(-0.00352617 -0.0387499 0)
(-0.203949 -0.0154141 0)
(-0.201176 -0.0623338 0)
(-0.192686 -0.107363 0)
(-0.177867 -0.147729 0)
(-0.156211 -0.179787 0)
(-0.127752 -0.198939 0)
(-0.0936124 -0.199877 0)
(-0.0567077 -0.177304 0)
(-0.0234669 -0.127324 0)
(-0.00443251 -0.0497925 0)
(-0.200091 -0.0151573 0)
(-0.198876 -0.0670715 0)
(-0.193187 -0.117794 0)
(-0.181957 -0.164696 0)
(-0.163934 -0.203916 0)
(-0.138163 -0.230042 0)
(-0.104712 -0.236112 0)
(-0.065789 -0.214275 0)
(-0.0283946 -0.157527 0)
(-0.00568381 -0.0632407 0)
(-0.181528 -0.0140266 0)
(-0.182244 -0.0692248 0)
(-0.180568 -0.124241 0)
(-0.175005 -0.176919 0)
(-0.163472 -0.22353 0)
(-0.14373 -0.258092 0)
(-0.114199 -0.271922 0)
(-0.0755284 -0.253897 0)
(-0.0346031 -0.192298 0)
(-0.0074929 -0.0798087 0)
(-0.142517 -0.0121059 0)
(-0.14539 -0.0680071 0)
(-0.148875 -0.124965 0)
(-0.1512 -0.181683 0)
(-0.149543 -0.235073 0)
(-0.140246 -0.279142 0)
(-0.119485 -0.303791 0)
(-0.0851434 -0.294124 0)
(-0.0425149 -0.231672 0)
(-0.0102274 -0.100572 0)
(-0.0764453 -0.00964296 0)
(-0.0814611 -0.0628177 0)
(-0.0908942 -0.118326 0)
(-0.103024 -0.17608 0)
(-0.114685 -0.234271 0)
(-0.121046 -0.287819 0)
(-0.115751 -0.326184 0)
(-0.0925301 -0.330941 0)
(-0.0524125 -0.274818 0)
(-0.0144458 -0.127127 0)
(0.0236798 -0.00701993 0)
(0.0168533 -0.0534709 0)
(0.00146226 -0.103259 0)
(-0.0213164 -0.157668 0)
(-0.0487615 -0.216747 0)
(-0.0757915 -0.277567 0)
(-0.0940841 -0.331033 0)
(-0.0923585 -0.35704 0)
(-0.0633909 -0.318852 0)
(-0.020652 -0.161809 0)
(0.164321 -0.00463925 0)
(0.156369 -0.0404373 0)
(0.136289 -0.079918 0)
(0.10418 -0.125484 0)
(0.0612292 -0.179226 0)
(0.0110252 -0.241496 0)
(-0.0383548 -0.307377 0)
(-0.0719706 -0.359719 0)
(-0.0701661 -0.356317 0)
(-0.0279312 -0.208269 0)
(0.350029 -0.00277428 0)
(0.341999 -0.025156 0)
(0.320267 -0.050603 0)
(0.283593 -0.081807 0)
(0.230711 -0.122171 0)
(0.16153 -0.175384 0)
(0.079461 -0.243162 0)
(-0.00343459 -0.318909 0)
(-0.0547623 -0.36846 0)
(-0.028475 -0.267568 0)
(0.581468 -0.00148236 0)
(0.574815 -0.0107991 0)
(0.556502 -0.0217729 0)
(0.524436 -0.0362409 0)
(0.475208 -0.0571548 0)
(0.404111 -0.0892779 0)
(0.304892 -0.139643 0)
(0.173262 -0.216306 0)
(0.0411169 -0.311605 0)
(0.0184228 -0.299985 0)
(0.852325 -0.000495182 0)
(0.849058 -0.00220507 0)
(0.840708 -0.00432417 0)
(0.825894 -0.00740691 0)
(0.801884 -0.012514 0)
(0.763481 -0.021755 0)
(0.699021 -0.0392669 0)
(0.583911 -0.0726477 0)
(0.415819 -0.127862 0)
(0.308822 -0.14947 0)
)
;

boundaryField
{
    movingWall
    {
        type            fixedValue;
        value           uniform (1 0 0);
    }
    fixedWalls
    {
        type            noSlip;
    }
    frontAndBack
    {
        type            empty;
    }
    procBoundary0to1
    {
        type            processor;
        value           nonuniform List<vector> 
20
(
(-0.017372 0.000182373 0)
(-0.0452756 0.000954282 0)
(-0.069123 0.00240686 0)
(-0.0906846 0.00434865 0)
(-0.111008 0.00673034 0)
(-0.130647 0.00958115 0)
(-0.149679 0.0129439 0)
(-0.167662 0.0168499 0)
(-0.18357 0.0212886 0)
(-0.195684 0.0261648 0)
(-0.201475 0.0312471 0)
(-0.197476 0.0361138 0)
(-0.179182 0.0401115 0)
(-0.141015 0.0423612 0)
(-0.0764279 0.0418627 0)
(0.0217333 0.0377573 0)
(0.160448 0.0297571 0)
(0.345142 0.0187034 0)
(0.577408 0.007459 0)
(0.851033 0.00114677 0)
)
;
    }
}


// ************************************************************************* //
