/*--------------------------------*- C++ -*----------------------------------*\
| =========                 |                                                 |
| \\      /  F ield         | OpenFOAM: The Open Source CFD Toolbox           |
|  \\    /   O peration     | Version:  v2106                                 |
|   \\  /    A nd           | Website:  www.openfoam.com                      |
|    \\/     M anipulation  |                                                 |
\*---------------------------------------------------------------------------*/
FoamFile
{
    version     2.0;
    format      ascii;
    arch        "LSB;label=32;scalar=64";
    class       volScalarField;
    location    "0.3";
    object      p;
}
// * * * * * * * * * * * * * * * * * * * * * * * * * * * * * * * * * * * * * //

dimensions      [0 2 -2 0 0 0 0];

internalField   nonuniform List<scalar> 
200
(
-0.0432346
-0.0490637
-0.0562008
-0.0616521
-0.063669
-0.0614751
-0.0550109
-0.0447214
-0.0314015
-0.0160912
-0.0374595
-0.0434582
-0.0490433
-0.0527812
-0.0538372
-0.0516709
-0.0462083
-0.0377647
-0.0269367
-0.0145288
-0.0299072
-0.0382076
-0.0442357
-0.0476629
-0.0485123
-0.0465032
-0.041637
-0.034212
-0.0247379
-0.0138912
-0.0231043
-0.0345463
-0.0420154
-0.0459091
-0.0469622
-0.0451252
-0.0405085
-0.0334553
-0.0244597
-0.0141454
-0.0187425
-0.0334697
-0.0426519
-0.0472279
-0.0485427
-0.0467475
-0.0420653
-0.0349054
-0.025778
-0.0152911
-0.0180668
-0.0360929
-0.0470438
-0.0522982
-0.0537526
-0.0517401
-0.0465966
-0.0388103
-0.0289263
-0.0175607
-0.0221506
-0.0435048
-0.0561759
-0.0619501
-0.06327
-0.0606536
-0.0545577
-0.0455588
-0.0342486
-0.0212628
-0.0321001
-0.0568598
-0.0711158
-0.0770943
-0.0778431
-0.0740966
-0.0664516
-0.0555836
-0.0421334
-0.0267542
-0.0492083
-0.0775067
-0.0931097
-0.0987879
-0.0983289
-0.0927529
-0.0828314
-0.0693509
-0.0529944
-0.0344142
-0.0750961
-0.107115
-0.123655
-0.128245
-0.125658
-0.117316
-0.104218
-0.0872733
-0.0671879
-0.0445731
-0.111904
-0.14784
-0.164582
-0.166827
-0.160753
-0.148363
-0.130955
-0.109561
-0.0848726
-0.057391
-0.162637
-0.202593
-0.218151
-0.215993
-0.204384
-0.186165
-0.162995
-0.136012
-0.105812
-0.0726824
-0.231861
-0.275476
-0.287174
-0.277184
-0.25693
-0.23039
-0.199608
-0.165736
-0.129133
-0.0897066
-0.327206
-0.372538
-0.375066
-0.351515
-0.317944
-0.279676
-0.239
-0.196845
-0.153075
-0.106979
-0.46255
-0.502905
-0.485585
-0.439028
-0.385365
-0.330976
-0.277852
-0.226165
-0.174844
-0.122219
-0.663764
-0.679978
-0.621913
-0.537429
-0.454477
-0.378895
-0.311017
-0.249213
-0.190771
-0.132617
-0.979157
-0.92175
-0.784978
-0.641186
-0.517631
-0.415897
-0.332106
-0.260999
-0.197189
-0.135699
-1.51966
-1.24987
-0.963741
-0.734627
-0.560544
-0.430783
-0.333299
-0.256575
-0.19136
-0.130451
-2.58289
-1.67379
-1.08768
-0.754199
-0.538991
-0.395334
-0.29777
-0.226822
-0.169407
-0.116831
-4.4099
-2.08787
-1.01678
-0.606422
-0.401089
-0.283389
-0.213361
-0.167023
-0.13072
-0.0967471
)
;

boundaryField
{
    movingWall
    {
        type            zeroGradient;
    }
    fixedWalls
    {
        type            zeroGradient;
    }
    frontAndBack
    {
        type            empty;
    }
    procBoundary1to0
    {
        type            processor;
        value           nonuniform List<scalar> 
20
(
1.77822e-06
-0.00149166
-0.00247563
-0.00324879
-0.00415536
-0.005426
-0.00732943
-0.0101856
-0.0143362
-0.0200906
-0.0276298
-0.0368616
-0.0472487
-0.0576719
-0.0664479
-0.0716599
-0.0719514
-0.0678121
-0.0625038
-0.0598893
)
;
    }
}


// ************************************************************************* //
