/*--------------------------------*- C++ -*----------------------------------*\
| =========                 |                                                 |
| \\      /  F ield         | OpenFOAM: The Open Source CFD Toolbox           |
|  \\    /   O peration     | Version:  v2106                                 |
|   \\  /    A nd           | Website:  www.openfoam.com                      |
|    \\/     M anipulation  |                                                 |
\*---------------------------------------------------------------------------*/
FoamFile
{
    version     2.0;
    format      ascii;
    arch        "LSB;label=32;scalar=64";
    class       surfaceScalarField;
    location    "0.3";
    object      phi;
}
// * * * * * * * * * * * * * * * * * * * * * * * * * * * * * * * * * * * * * //

dimensions      [0 3 -1 0 0 0 0];

oriented        oriented;

internalField   nonuniform List<scalar> 
370
(
1.4248e-08
-1.4248e-08
-2.22014e-08
3.6449e-08
-1.14257e-07
9.20553e-08
-2.45472e-07
1.31215e-07
-3.96064e-07
1.50592e-07
-5.47319e-07
1.51255e-07
-6.83131e-07
1.35812e-07
-7.90593e-07
1.07462e-07
-8.60129e-07
6.95368e-08
2.54285e-08
-3.4204e-08
1.99561e-08
-1.80352e-07
1.82597e-07
-4.3395e-07
3.45653e-07
-7.64371e-07
4.61636e-07
-1.13212e-06
5.18344e-07
-1.49713e-06
5.1626e-07
-1.8232e-06
4.61881e-07
-2.08037e-06
3.6464e-07
-2.2461e-06
2.35263e-07
8.51894e-08
-9.22171e-08
1.12173e-07
-3.56964e-07
4.47344e-07
-7.64495e-07
7.53184e-07
-1.26839e-06
9.65527e-07
-1.81456e-06
1.06451e-06
-2.34886e-06
1.05057e-06
-2.82221e-06
9.35233e-07
-3.19369e-06
7.3612e-07
-3.43234e-06
4.73912e-07
1.71088e-07
-1.45197e-07
2.5737e-07
-5.25418e-07
8.27563e-07
-1.08155e-06
1.30931e-06
-1.74737e-06
1.63135e-06
-2.45414e-06
1.77128e-06
-3.13613e-06
1.73256e-06
-3.735e-06
1.5341e-06
-4.20258e-06
1.2037e-06
-4.50257e-06
7.73903e-07
2.80092e-07
-1.93594e-07
4.50964e-07
-6.84949e-07
1.31892e-06
-1.38552e-06
2.00988e-06
-2.20708e-06
2.45291e-06
-3.06524e-06
2.62944e-06
-3.8835e-06
2.55081e-06
-4.59617e-06
2.24678e-06
-5.15021e-06
1.75774e-06
-5.50605e-06
1.12974e-06
4.12161e-07
-2.39925e-07
6.90888e-07
-8.40296e-07
1.91929e-06
-1.68318e-06
2.85277e-06
-2.65689e-06
3.42662e-06
-3.66061e-06
3.63316e-06
-4.60748e-06
3.49768e-06
-5.42602e-06
3.06531e-06
-6.0602e-06
2.39192e-06
-6.46896e-06
1.53851e-06
5.68853e-07
-2.86731e-07
9.77619e-07
-9.97038e-07
2.62959e-06
-1.98199e-06
3.83772e-06
-3.1048e-06
4.54943e-06
-4.24775e-06
4.77611e-06
-5.31457e-06
4.56449e-06
-6.22982e-06
3.98057e-06
-6.93685e-06
3.09895e-06
-7.39514e-06
1.9968e-06
7.51983e-07
-3.3632e-07
1.31394e-06
-1.16033e-06
3.45361e-06
-2.28794e-06
4.96533e-06
-3.55488e-06
5.81637e-06
-4.82647e-06
6.0477e-06
-5.99887e-06
5.7369e-06
-6.9958e-06
4.9775e-06
-7.76326e-06
3.86641e-06
-8.26421e-06
2.49775e-06
9.62108e-07
-3.90951e-07
1.70489e-06
-1.33486e-06
4.39752e-06
-2.60493e-06
6.23539e-06
-4.00588e-06
7.21731e-06
-5.38672e-06
7.42854e-06
-6.63963e-06
6.98981e-06
-7.69229e-06
6.03016e-06
-8.4983e-06
4.67242e-06
-9.02824e-06
3.02769e-06
1.19661e-06
-4.53452e-07
2.15834e-06
-1.52568e-06
5.46975e-06
-2.93487e-06
7.64459e-06
-4.4501e-06
8.73254e-06
-5.9063e-06
8.88474e-06
-7.19779e-06
8.28129e-06
-8.26363e-06
7.096e-06
-9.07203e-06
5.48083e-06
-9.60683e-06
3.56249e-06
1.44733e-06
-5.28339e-07
2.68668e-06
-1.73967e-06
6.68108e-06
-3.27799e-06
9.18291e-06
-4.87165e-06
1.03262e-05
-6.34705e-06
1.03601e-05
-7.61087e-06
9.54511e-06
-8.62441e-06
8.10954e-06
-9.37974e-06
6.23616e-06
-9.88105e-06
4.0638e-06
1.69788e-06
-6.23674e-07
3.31035e-06
-1.98741e-06
8.04481e-06
-3.63196e-06
1.08275e-05
-5.242e-06
1.19362e-05
-6.64767e-06
1.17658e-05
-7.7846e-06
1.0682e-05
-8.65116e-06
8.9761e-06
-9.27447e-06
6.85947e-06
-9.68671e-06
4.47604e-06
1.92116e-06
-7.54088e-07
4.06444e-06
-2.28439e-06
9.57511e-06
-3.98708e-06
1.25302e-05
-5.50921e-06
1.34584e-05
-6.70976e-06
1.29664e-05
-7.57876e-06
1.1551e-05
-8.17029e-06
9.56763e-06
-8.55789e-06
7.24707e-06
-8.808e-06
4.72616e-06
2.07848e-06
-9.4522e-07
5.00966e-06
-2.64854e-06
1.12784e-05
-4.31108e-06
1.41927e-05
-5.57343e-06
1.47207e-05
-6.37087e-06
1.37638e-05
-6.7835e-06
1.19637e-05
-6.94076e-06
9.72488e-06
-6.97001e-06
7.27632e-06
-6.97307e-06
4.72922e-06
2.12221e-06
-1.23733e-06
6.24699e-06
-3.08334e-06
1.31244e-05
-4.50779e-06
1.56172e-05
-5.23462e-06
1.54476e-05
-5.3554e-06
1.38846e-05
-5.08206e-06
1.16903e-05
-4.63116e-06
9.27398e-06
-4.17956e-06
6.82472e-06
-3.85467e-06
4.40433e-06
2.00487e-06
-1.67382e-06
7.92081e-06
-3.51341e-06
1.4964e-05
-4.31538e-06
1.64191e-05
-4.089e-06
1.52212e-05
-3.19323e-06
1.29888e-05
-1.99896e-06
1.04961e-05
-7.9541e-07
8.07043e-06
2.19039e-07
5.81027e-06
9.17914e-07
3.70545e-06
1.69751e-06
-2.2307e-06
1.01515e-05
-3.59033e-06
1.63237e-05
-3.07785e-06
1.59067e-05
-1.34399e-06
1.34873e-05
8.96878e-07
1.07479e-05
3.15476e-06
8.23819e-06
5.13787e-06
6.08732e-06
6.68841e-06
4.25973e-06
7.72553e-06
2.66833e-06
1.2168e-06
-2.57382e-06
1.27253e-05
-2.18348e-06
1.59333e-05
7.18023e-07
1.30052e-05
4.46948e-06
9.73585e-06
8.13316e-06
7.08427e-06
1.13014e-05
5.06994e-06
1.38289e-05
3.55984e-06
1.56879e-05
2.40075e-06
1.68914e-05
1.46478e-06
6.53596e-07
-7.85013e-07
1.35103e-05
4.08079e-06
1.10675e-05
1.02975e-05
6.78842e-06
1.57936e-05
4.23978e-06
2.0158e-05
2.7199e-06
2.3458e-05
1.76993e-06
2.58607e-05
1.15713e-06
2.75214e-05
7.40043e-07
2.85539e-05
4.32287e-07
1.81219e-07
1.35103e-05
2.45779e-05
3.13663e-05
3.56061e-05
3.8326e-05
4.00959e-05
4.1253e-05
4.19931e-05
4.24253e-05
)
;

boundaryField
{
    movingWall
    {
        type            calculated;
        value           uniform 0;
    }
    fixedWalls
    {
        type            calculated;
        value           uniform 0;
    }
    frontAndBack
    {
        type            empty;
        value           nonuniform List<scalar> 0();
    }
    procBoundary1to0
    {
        type            processor;
        value           nonuniform List<scalar> 
20
(
-8.85558e-07
-2.30586e-06
-3.51824e-06
-4.61158e-06
-5.63812e-06
-6.62565e-06
-7.57827e-06
-8.47434e-06
-9.26274e-06
-9.85755e-06
-1.01316e-05
-9.90999e-06
-8.96533e-06
-7.01679e-06
-3.73734e-06
1.22528e-06
8.20624e-06
1.74546e-05
2.90263e-05
4.26066e-05
)
;
    }
}


// ************************************************************************* //
