/*--------------------------------*- C++ -*----------------------------------*\
| =========                 |                                                 |
| \\      /  F ield         | OpenFOAM: The Open Source CFD Toolbox           |
|  \\    /   O peration     | Version:  v2106                                 |
|   \\  /    A nd           | Website:  www.openfoam.com                      |
|    \\/     M anipulation  |                                                 |
\*---------------------------------------------------------------------------*/
FoamFile
{
    version     2.0;
    format      ascii;
    arch        "LSB;label=32;scalar=64";
    class       volScalarField;
    location    "0.2";
    object      p;
}
// * * * * * * * * * * * * * * * * * * * * * * * * * * * * * * * * * * * * * //

dimensions      [0 2 -2 0 0 0 0];

internalField   nonuniform List<scalar> 
200
(
5.90451e-07
0.0155763
0.0293291
0.040057
0.046801
0.0490164
0.0467781
0.041
0.0336406
0.0278297
-0.00149328
0.0111411
0.02234
0.0311627
0.0368732
0.0390699
0.0378337
0.0338142
0.0280366
0.0220832
-0.00247731
0.00862607
0.0185244
0.026392
0.0315631
0.0336355
0.0326013
0.0288483
0.0225712
0.0143051
-0.00325016
0.00741168
0.0169905
0.0246737
0.0297616
0.0317614
0.0305279
0.0262211
0.0183718
0.00687656
-0.00415602
0.00682904
0.0168081
0.0249246
0.0303867
0.0325596
0.0311331
0.0260568
0.0162969
0.00131454
-0.0054255
0.00666423
0.0178092
0.0270645
0.0334968
0.0362804
0.0349045
0.029102
0.0173121
-0.00133074
-0.00732734
0.00670756
0.0198754
0.0311087
0.0392858
0.0433345
0.0424874
0.0362163
0.0223936
-0.000149034
-0.0101816
0.00669951
0.0228491
0.0370554
0.0479664
0.0541963
0.0546377
0.0484054
0.0326688
0.00589405
-0.0143301
0.00636229
0.0265658
0.0449223
0.0598149
0.0694685
0.0723183
0.0669606
0.0496052
0.0181858
-0.0200825
0.00543263
0.0308664
0.054742
0.0751648
0.0898939
0.0967562
0.0935857
0.0752092
0.0387039
-0.0276199
0.00372719
0.0356286
0.0665649
0.0943937
0.116354
0.129494
0.130544
0.112286
0.070336
-0.0368506
0.00124909
0.0408293
0.0804754
0.117907
0.149854
0.172434
0.180841
0.164813
0.117393
-0.0472374
-0.0016849
0.0466168
0.0966018
0.146089
0.191457
0.22784
0.248427
0.238502
0.186531
-0.057661
-0.00436056
0.0533285
0.115048
0.179143
0.242054
0.29816
0.338335
0.341671
0.288585
-0.066438
-0.00574965
0.0613262
0.135608
0.216628
0.301734
0.385377
0.456458
0.486429
0.442139
-0.0716514
-0.00487801
0.0705785
0.15724
0.25674
0.368787
0.489789
0.608532
0.689524
0.679142
-0.0719443
-0.00153204
0.0800339
0.177486
0.29569
0.438915
0.608754
0.798097
0.972023
1.05425
-0.0678061
0.00222877
0.0857073
0.189838
0.323867
0.499439
0.728051
1.01607
1.36004
1.68689
-0.0624984
-0.000441801
0.0759831
0.175552
0.311578
0.504747
0.783152
1.19334
1.86843
2.88094
-0.059884
-0.0155666
0.041381
0.118502
0.229182
0.398867
0.674983
1.18247
2.36779
4.80528
)
;

boundaryField
{
    movingWall
    {
        type            zeroGradient;
    }
    fixedWalls
    {
        type            zeroGradient;
    }
    frontAndBack
    {
        type            empty;
    }
    procBoundary0to1
    {
        type            processor;
        value           nonuniform List<scalar> 
20
(
-0.0160914
-0.0145298
-0.0138928
-0.014147
-0.0152923
-0.0175608
-0.0212613
-0.0267507
-0.0344084
-0.0445652
-0.0573813
-0.0726714
-0.089695
-0.106968
-0.122209
-0.132609
-0.135692
-0.130445
-0.116827
-0.0967442
)
;
    }
}


// ************************************************************************* //
