/*--------------------------------*- C++ -*----------------------------------*\
| =========                 |                                                 |
| \\      /  F ield         | OpenFOAM: The Open Source CFD Toolbox           |
|  \\    /   O peration     | Version:  v2106                                 |
|   \\  /    A nd           | Website:  www.openfoam.com                      |
|    \\/     M anipulation  |                                                 |
\*---------------------------------------------------------------------------*/
FoamFile
{
    version     2.0;
    format      ascii;
    arch        "LSB;label=32;scalar=64";
    class       volVectorField;
    location    "0.2";
    object      U;
}
// * * * * * * * * * * * * * * * * * * * * * * * * * * * * * * * * * * * * * //

dimensions      [0 1 -1 0 0 0 0];

internalField   nonuniform List<vector> 
200
(
(-0.0176959 -0.000145274 0)
(-0.0167992 -0.000468229 0)
(-0.0150249 -0.00075515 0)
(-0.0125209 -0.000973925 0)
(-0.00952327 -0.00109082 0)
(-0.00635301 -0.00107366 0)
(-0.00339971 -0.000897852 0)
(-0.00108626 -0.000556256 0)
(0.000196223 -9.04062e-05 0)
(0.000267721 0.000262238 0)
(-0.0461119 -0.000812913 0)
(-0.0439448 -0.00254609 0)
(-0.0396864 -0.00407707 0)
(-0.0336903 -0.00524314 0)
(-0.0265038 -0.00588442 0)
(-0.0188479 -0.00586278 0)
(-0.0115626 -0.00509302 0)
(-0.00551144 -0.00358828 0)
(-0.00149264 -0.00155875 0)
(-4.25943e-05 0.000227247 0)
(-0.0703733 -0.0021055 0)
(-0.0672585 -0.00652271 0)
(-0.0611291 -0.010425 0)
(-0.0524687 -0.0134158 0)
(-0.0420213 -0.0151177 0)
(-0.0307625 -0.01522 0)
(-0.0198217 -0.0135511 0)
(-0.0103597 -0.0101753 0)
(-0.00354716 -0.00554922 0)
(-0.000476646 -0.000948614 0)
(-0.0922687 -0.00380593 0)
(-0.0884173 -0.0117914 0)
(-0.0807752 -0.0188744 0)
(-0.0698974 -0.0243666 0)
(-0.0566487 -0.027617 0)
(-0.0421796 -0.0280912 0)
(-0.0278465 -0.0254883 0)
(-0.0150881 -0.0198844 0)
(-0.00550289 -0.0119234 0)
(-0.000861219 -0.00322372 0)
(-0.112859 -0.00577719 0)
(-0.108438 -0.0180468 0)
(-0.0995289 -0.0289995 0)
(-0.0867105 -0.0376179 0)
(-0.0709124 -0.0429286 0)
(-0.0534128 -0.0441124 0)
(-0.0357728 -0.0406638 0)
(-0.0197284 -0.0325807 0)
(-0.00736794 -0.0205831 0)
(-0.00120318 -0.00649568 0)
(-0.13271 -0.0079119 0)
(-0.127885 -0.0251213 0)
(-0.117932 -0.0406086 0)
(-0.103404 -0.0529989 0)
(-0.0852447 -0.0609435 0)
(-0.0648172 -0.0632571 0)
(-0.0438729 -0.059121 0)
(-0.0244705 -0.0483273 0)
(-0.00925144 -0.0315463 0)
(-0.0015372 -0.0107245 0)
(-0.151912 -0.0100809 0)
(-0.14688 -0.0328189 0)
(-0.136149 -0.053479 0)
(-0.120195 -0.0703109 0)
(-0.0999096 -0.0815364 0)
(-0.0766839 -0.0855034 0)
(-0.0524281 -0.0809366 0)
(-0.0295379 -0.0672547 0)
(-0.0112808 -0.0449245 0)
(-0.00189954 -0.0159459 0)
(-0.170032 -0.012127 0)
(-0.165042 -0.0408771 0)
(-0.153903 -0.0672899 0)
(-0.136946 -0.0892426 0)
(-0.114923 -0.104478 0)
(-0.089161 -0.110762 0)
(-0.0616604 -0.10618 0)
(-0.0351424 -0.0895524 0)
(-0.0135834 -0.060931 0)
(-0.00232587 -0.0222705 0)
(-0.186037 -0.0138675 0)
(-0.181402 -0.0489387 0)
(-0.170376 -0.0815662 0)
(-0.153064 -0.109289 0)
(-0.129957 -0.129343 0)
(-0.102175 -0.138789 0)
(-0.0716821 -0.13485 0)
(-0.0414626 -0.115438 0)
(-0.0162863 -0.079874 0)
(-0.00285435 -0.0298813 0)
(-0.198178 -0.0151052 0)
(-0.194275 -0.0565265 0)
(-0.184074 -0.0956133 0)
(-0.167359 -0.129653 0)
(-0.144209 -0.155383 0)
(-0.115334 -0.169055 0)
(-0.0824422 -0.166763 0)
(-0.0486339 -0.145091 0)
(-0.0195278 -0.102137 0)
(-0.00353338 -0.0390381 0)
(-0.203863 -0.0156516 0)
(-0.201115 -0.0630317 0)
(-0.192653 -0.108462 0)
(-0.17786 -0.149134 0)
(-0.156226 -0.181374 0)
(-0.127781 -0.200564 0)
(-0.0936449 -0.201385 0)
(-0.0567333 -0.17854 0)
(-0.0234799 -0.128149 0)
(-0.00443552 -0.050095 0)
(-0.199521 -0.015364 0)
(-0.198354 -0.0677255 0)
(-0.192733 -0.11884 0)
(-0.181588 -0.166044 0)
(-0.163656 -0.205449 0)
(-0.137974 -0.23162 0)
(-0.104601 -0.237586 0)
(-0.0657362 -0.215492 0)
(-0.0283787 -0.158344 0)
(-0.00568224 -0.063543 0)
(-0.180516 -0.014193 0)
(-0.181295 -0.0698056 0)
(-0.179721 -0.125186 0)
(-0.174293 -0.178149 0)
(-0.162913 -0.224937 0)
(-0.14333 -0.259551 0)
(-0.113946 -0.273294 0)
(-0.0753979 -0.255036 0)
(-0.0345581 -0.193069 0)
(-0.00748661 -0.0800958 0)
(-0.141148 -0.0122287 0)
(-0.144092 -0.0684942 0)
(-0.147702 -0.125774 0)
(-0.150198 -0.182743 0)
(-0.148744 -0.236294 0)
(-0.139661 -0.280415 0)
(-0.119106 -0.304995 0)
(-0.0849425 -0.295133 0)
(-0.042443 -0.232359 0)
(-0.0102165 -0.100829 0)
(-0.074845 -0.00972578 0)
(-0.0799309 -0.0632011 0)
(-0.0894995 -0.118974 0)
(-0.10182 -0.176936 0)
(-0.113712 -0.235261 0)
(-0.120325 -0.288857 0)
(-0.115276 -0.327171 0)
(-0.092274 -0.331773 0)
(-0.0523186 -0.275389 0)
(-0.0144309 -0.127341 0)
(0.0253566 -0.00707156 0)
(0.0184672 -0.0537514 0)
(0.00294295 -0.10374 0)
(-0.020029 -0.158305 0)
(-0.0477122 -0.217485 0)
(-0.0750047 -0.278342 0)
(-0.0935603 -0.331773 0)
(-0.0920714 -0.357667 0)
(-0.0632836 -0.319283 0)
(-0.0206342 -0.16197 0)
(0.165904 -0.00467042 0)
(0.157899 -0.0406239 0)
(0.137698 -0.080239 0)
(0.105411 -0.125908 0)
(0.062238 -0.179715 0)
(0.0117873 -0.242009 0)
(-0.0378425 -0.307866 0)
(-0.0716866 -0.360133 0)
(-0.0700584 -0.356602 0)
(-0.0279128 -0.208373 0)
(0.351346 -0.00279351 0)
(0.343273 -0.0252626 0)
(0.321442 -0.0507836 0)
(0.284619 -0.0820428 0)
(0.231553 -0.12244 0)
(0.162166 -0.175663 0)
(0.0798906 -0.243425 0)
(-0.00319552 -0.319131 0)
(-0.0546718 -0.368609 0)
(-0.0284598 -0.267617 0)
(0.582361 -0.0014938 0)
(0.575677 -0.0108442 0)
(0.557291 -0.0218455 0)
(0.52512 -0.0363329 0)
(0.475765 -0.0572574 0)
(0.404528 -0.0893819 0)
(0.30517 -0.139739 0)
(0.173414 -0.216384 0)
(0.0411709 -0.311654 0)
(0.0184301 -0.299995 0)
(0.852659 -0.000499287 0)
(0.849376 -0.00221486 0)
(0.840994 -0.00433826 0)
(0.826136 -0.00742373 0)
(0.802074 -0.0125319 0)
(0.763618 -0.0217725 0)
(0.699106 -0.0392826 0)
(0.583952 -0.0726599 0)
(0.415827 -0.127868 0)
(0.308819 -0.149468 0)
)
;

boundaryField
{
    movingWall
    {
        type            fixedValue;
        value           uniform (1 0 0);
    }
    fixedWalls
    {
        type            noSlip;
    }
    frontAndBack
    {
        type            empty;
    }
    procBoundary0to1
    {
        type            processor;
        value           nonuniform List<vector> 
20
(
(-0.0176519 0.000184471 0)
(-0.0460294 0.000966601 0)
(-0.0702551 0.00243816 0)
(-0.0920838 0.00440388 0)
(-0.112549 0.00681196 0)
(-0.132198 0.00969052 0)
(-0.151104 0.0130817 0)
(-0.168837 0.0170163 0)
(-0.184386 0.0214829 0)
(-0.19606 0.0263851 0)
(-0.201367 0.0314895 0)
(-0.196883 0.0363715 0)
(-0.17815 0.0403741 0)
(-0.139634 0.0426148 0)
(-0.0748275 0.0420907 0)
(0.023398 0.0379434 0)
(0.16201 0.029889 0)
(0.346437 0.0187772 0)
(0.578286 0.00748436 0)
(0.851364 0.00114932 0)
)
;
    }
}


// ************************************************************************* //
