/*--------------------------------*- C++ -*----------------------------------*\
| =========                 |                                                 |
| \\      /  F ield         | OpenFOAM: The Open Source CFD Toolbox           |
|  \\    /   O peration     | Version:  v2106                                 |
|   \\  /    A nd           | Website:  www.openfoam.com                      |
|    \\/     M anipulation  |                                                 |
\*---------------------------------------------------------------------------*/
FoamFile
{
    version     2.0;
    format      ascii;
    arch        "LSB;label=32;scalar=64";
    class       volScalarField;
    location    "0.2";
    object      p;
}
// * * * * * * * * * * * * * * * * * * * * * * * * * * * * * * * * * * * * * //

dimensions      [0 2 -2 0 0 0 0];

internalField   nonuniform List<scalar> 
400
(
-0.0432442
-0.0490713
-0.0562057
-0.0616543
-0.0636692
-0.061474
-0.0550092
-0.04472
-0.0314008
-0.0160914
5.90451e-07
0.0155763
0.0293291
0.040057
0.046801
0.0490164
0.0467781
0.041
0.0336406
0.0278297
-0.0374712
-0.0434677
-0.0490505
-0.0527863
-0.0538406
-0.0516729
-0.0462095
-0.0377655
-0.0269375
-0.0145298
-0.00149328
0.0111411
0.02234
0.0311627
0.0368732
0.0390699
0.0378337
0.0338142
0.0280366
0.0220832
-0.0299222
-0.0382194
-0.044245
-0.0476702
-0.0485179
-0.0465073
-0.0416399
-0.0342142
-0.0247397
-0.0138928
-0.00247731
0.00862607
0.0185244
0.026392
0.0315631
0.0336355
0.0326013
0.0288483
0.0225712
0.0143051
-0.0231223
-0.0345601
-0.0420262
-0.0459179
-0.0469691
-0.0451304
-0.0405124
-0.0334581
-0.0244618
-0.014147
-0.00325016
0.00741168
0.0169905
0.0246737
0.0297616
0.0317614
0.0305279
0.0262211
0.0183718
0.00687656
-0.0187624
-0.0334846
-0.0426636
-0.0472373
-0.0485501
-0.0467531
-0.0420693
-0.0349081
-0.0257798
-0.0152923
-0.00415602
0.00682904
0.0168081
0.0249246
0.0303867
0.0325596
0.0311331
0.0260568
0.0162969
0.00131454
-0.0180867
-0.0361075
-0.0470551
-0.0523073
-0.0537596
-0.0517452
-0.0466
-0.0388123
-0.0289272
-0.0175608
-0.0054255
0.00666423
0.0178092
0.0270645
0.0334968
0.0362804
0.0349045
0.029102
0.0173121
-0.00133074
-0.0221685
-0.0435178
-0.0561858
-0.0619578
-0.0632757
-0.0606574
-0.0545598
-0.0455594
-0.0342479
-0.0212613
-0.00732734
0.00670756
0.0198754
0.0311087
0.0392858
0.0433345
0.0424874
0.0362163
0.0223936
-0.000149034
-0.0321139
-0.0568696
-0.0711231
-0.0770998
-0.0778467
-0.0740983
-0.0664516
-0.0555822
-0.0421307
-0.0267507
-0.0101816
0.00669951
0.0228491
0.0370554
0.0479664
0.0541963
0.0546377
0.0484054
0.0326688
0.00589405
-0.0492164
-0.0775123
-0.0931136
-0.0987902
-0.0983297
-0.0927522
-0.0828291
-0.0693471
-0.0529895
-0.0344084
-0.0143301
0.00636229
0.0265658
0.0449223
0.0598149
0.0694685
0.0723183
0.0669606
0.0496052
0.0181858
-0.0750975
-0.107115
-0.123655
-0.128244
-0.125656
-0.117312
-0.104213
-0.0872673
-0.0671807
-0.0445652
-0.0200825
0.00543263
0.0308664
0.054742
0.0751648
0.0898939
0.0967562
0.0935857
0.0752092
0.0387039
-0.111898
-0.147836
-0.164577
-0.166823
-0.160747
-0.148357
-0.130948
-0.109553
-0.0848635
-0.0573813
-0.0276199
0.00372719
0.0356286
0.0665649
0.0943937
0.116354
0.129494
0.130544
0.112286
0.070336
-0.162625
-0.202583
-0.218143
-0.215986
-0.204377
-0.186157
-0.162986
-0.136003
-0.105802
-0.0726714
-0.0368506
0.00124909
0.0408293
0.0804754
0.117907
0.149854
0.172434
0.180841
0.164813
0.117393
-0.231844
-0.275463
-0.287163
-0.277174
-0.256921
-0.230381
-0.199599
-0.165726
-0.129122
-0.089695
-0.0472374
-0.0016849
0.0466168
0.0966018
0.146089
0.191457
0.22784
0.248427
0.238502
0.186531
-0.327186
-0.372523
-0.375054
-0.351505
-0.317935
-0.279667
-0.238991
-0.196835
-0.153064
-0.106968
-0.057661
-0.00436056
0.0533285
0.115048
0.179143
0.242054
0.29816
0.338335
0.341671
0.288585
-0.462529
-0.502889
-0.485573
-0.439018
-0.385357
-0.330968
-0.277844
-0.226156
-0.174834
-0.122209
-0.066438
-0.00574965
0.0613262
0.135608
0.216628
0.301734
0.385377
0.456458
0.486429
0.442139
-0.663745
-0.679964
-0.621902
-0.537422
-0.454472
-0.37889
-0.311011
-0.249206
-0.190763
-0.132609
-0.0716514
-0.00487801
0.0705785
0.15724
0.25674
0.368787
0.489789
0.608532
0.689524
0.679142
-0.979142
-0.921739
-0.784971
-0.641181
-0.517628
-0.415895
-0.332102
-0.260994
-0.197183
-0.135692
-0.0719443
-0.00153204
0.0800339
0.177486
0.29569
0.438915
0.608754
0.798097
0.972023
1.05425
-1.51965
-1.24986
-0.963737
-0.734625
-0.560544
-0.430783
-0.333299
-0.256572
-0.191356
-0.130445
-0.0678061
0.00222877
0.0857073
0.189838
0.323867
0.499439
0.728051
1.01607
1.36004
1.68689
-2.58288
-1.67378
-1.08768
-0.7542
-0.538994
-0.395337
-0.297772
-0.226822
-0.169404
-0.116827
-0.0624984
-0.000441801
0.0759831
0.175552
0.311578
0.504747
0.783152
1.19334
1.86843
2.88094
-4.4099
-2.08787
-1.01678
-0.606427
-0.401095
-0.283395
-0.213366
-0.167026
-0.13072
-0.0967442
-0.059884
-0.0155666
0.041381
0.118502
0.229182
0.398867
0.674983
1.18247
2.36779
4.80528
)
;

boundaryField
{
    movingWall
    {
        type            zeroGradient;
    }
    fixedWalls
    {
        type            zeroGradient;
    }
    frontAndBack
    {
        type            empty;
    }
}


// ************************************************************************* //
