/*--------------------------------*- C++ -*----------------------------------*\
| =========                 |                                                 |
| \\      /  F ield         | OpenFOAM: The Open Source CFD Toolbox           |
|  \\    /   O peration     | Version:  v2106                                 |
|   \\  /    A nd           | Website:  www.openfoam.com                      |
|    \\/     M anipulation  |                                                 |
\*---------------------------------------------------------------------------*/
FoamFile
{
    version     2.0;
    format      ascii;
    arch        "LSB;label=32;scalar=64";
    class       surfaceScalarField;
    location    "0.2";
    object      phi;
}
// * * * * * * * * * * * * * * * * * * * * * * * * * * * * * * * * * * * * * //

dimensions      [0 3 -1 0 0 0 0];

oriented        oriented;

internalField   nonuniform List<scalar> 
760
(
1.42402e-08
-1.42397e-08
-2.22019e-08
3.64418e-08
-1.14232e-07
9.20304e-08
-2.4541e-07
1.31177e-07
-3.95959e-07
1.50548e-07
-5.4717e-07
1.51211e-07
-6.82943e-07
1.35773e-07
-7.90375e-07
1.07432e-07
-8.59894e-07
6.95189e-08
-8.85318e-07
2.54241e-08
-8.6401e-07
-2.13156e-08
-7.97105e-07
-6.69051e-08
-6.89843e-07
-1.07261e-07
-5.51784e-07
-1.38058e-07
-3.96814e-07
-1.54971e-07
-2.42676e-07
-1.54138e-07
-1.09706e-07
-1.3297e-07
-1.84187e-08
-9.12877e-08
1.56798e-08
-3.40986e-08
1.56794e-08
-3.41945e-08
1.99546e-08
-1.80296e-07
1.82544e-07
-4.33812e-07
3.45547e-07
-7.64128e-07
4.61493e-07
-1.13176e-06
5.18182e-07
-1.49665e-06
5.161e-07
-1.82262e-06
4.61739e-07
-2.07972e-06
3.64531e-07
-2.2454e-06
2.35196e-07
-2.30514e-06
8.51712e-08
-2.25303e-06
-7.34265e-08
-2.09225e-06
-2.27687e-07
-1.83557e-06
-3.63944e-07
-1.50548e-06
-4.68147e-07
-1.13366e-06
-5.26786e-07
-7.59247e-07
-5.28556e-07
-4.25251e-07
-4.66967e-07
-1.72634e-07
-3.43905e-07
-3.07936e-08
-1.7594e-07
-1.51143e-08
-9.21821e-08
1.12137e-07
-3.56835e-07
4.47196e-07
-7.64225e-07
7.52938e-07
-1.26795e-06
9.65214e-07
-1.81393e-06
1.06417e-06
-2.34807e-06
1.05023e-06
-2.82126e-06
9.34937e-07
-3.19263e-06
7.35893e-07
-3.43121e-06
4.73775e-07
-3.51708e-06
1.71051e-07
-3.44219e-06
-1.48323e-07
-3.21098e-06
-4.58898e-07
-2.84098e-06
-7.33937e-07
-2.36288e-06
-9.46252e-07
-1.81961e-06
-1.07006e-06
-1.264e-06
-1.08417e-06
-7.5423e-07
-9.76735e-07
-3.46835e-07
-7.513e-07
-8.7301e-08
-4.35474e-07
-1.02415e-07
-1.4514e-07
2.57277e-07
-5.25225e-07
8.2728e-07
-1.08116e-06
1.30888e-06
-1.74677e-06
1.63082e-06
-2.45331e-06
1.77071e-06
-3.13508e-06
1.732e-06
-3.73376e-06
1.53362e-06
-4.2012e-06
1.20333e-06
-4.50111e-06
7.7368e-07
-4.61009e-06
2.80033e-07
-4.51847e-06
-2.39938e-07
-4.23108e-06
-7.46291e-07
-3.76791e-06
-1.19711e-06
-3.16442e-06
-1.54974e-06
-2.47093e-06
-1.76355e-06
-1.7504e-06
-1.8047e-06
-1.0741e-06
-1.65304e-06
-5.14936e-07
-1.31046e-06
-1.39257e-07
-8.11152e-07
-2.41673e-07
-1.93523e-07
4.508e-07
-6.84715e-07
1.31847e-06
-1.38507e-06
2.00923e-06
-2.20638e-06
2.45213e-06
-3.06429e-06
2.62861e-06
-3.8823e-06
2.55001e-06
-4.59477e-06
2.24609e-06
-5.14865e-06
1.75722e-06
-5.5044e-06
1.12943e-06
-5.63645e-06
4.1208e-07
-5.53374e-06
-3.42647e-07
-5.2005e-06
-1.07953e-06
-4.65722e-06
-1.74039e-06
-3.94157e-06
-2.2654e-06
-3.10861e-06
-2.5965e-06
-2.22972e-06
-2.6836e-06
-1.38915e-06
-2.49361e-06
-6.78251e-07
-2.02136e-06
-1.87695e-07
-1.30171e-06
-4.29367e-07
-2.39848e-07
6.90648e-07
-8.40049e-07
1.91867e-06
-1.68271e-06
2.85189e-06
-2.65617e-06
3.42559e-06
-3.65963e-06
3.63208e-06
-4.60626e-06
3.49665e-06
-5.42459e-06
3.06442e-06
-6.05862e-06
2.39124e-06
-6.46729e-06
1.5381e-06
-6.62396e-06
5.68748e-07
-6.51629e-06
-4.5032e-07
-6.14691e-06
-1.44891e-06
-5.53486e-06
-2.35244e-06
-4.71751e-06
-3.08275e-06
-3.75234e-06
-3.56166e-06
-2.71767e-06
-3.71827e-06
-1.71102e-06
-3.50026e-06
-8.444e-07
-2.88798e-06
-2.36101e-07
-1.91001e-06
-6.65469e-07
-2.86659e-07
9.77307e-07
-9.96809e-07
2.62882e-06
-1.98155e-06
3.83663e-06
-3.10413e-06
4.54817e-06
-4.24686e-06
4.7748e-06
-5.31345e-06
4.56324e-06
-6.22852e-06
3.97949e-06
-6.93541e-06
3.09813e-06
-7.39362e-06
1.99632e-06
-7.57673e-06
7.51858e-07
-7.47132e-06
-5.55731e-07
-7.0774e-06
-1.84283e-06
-6.41035e-06
-3.01948e-06
-5.50429e-06
-3.98881e-06
-4.41604e-06
-4.64992e-06
-3.22863e-06
-4.90568e-06
-2.05248e-06
-4.67641e-06
-1.02229e-06
-3.91816e-06
-2.88207e-07
-2.64409e-06
-9.53676e-07
-3.36262e-07
1.31357e-06
-1.16015e-06
3.45271e-06
-2.2876e-06
4.96408e-06
-3.55435e-06
5.81492e-06
-4.82575e-06
6.0462e-06
-5.99798e-06
5.73548e-06
-6.99476e-06
4.97627e-06
-7.76211e-06
3.86548e-06
-8.26299e-06
2.4972e-06
-8.4731e-06
9.61963e-07
-8.37848e-06
-6.50346e-07
-7.97551e-06
-2.24581e-06
-7.27334e-06
-3.72165e-06
-6.2989e-06
-4.96325e-06
-5.10384e-06
-5.84499e-06
-3.77192e-06
-6.2376e-06
-2.42449e-06
-6.02383e-06
-1.22054e-06
-5.12211e-06
-3.47646e-07
-3.51699e-06
-1.30132e-06
-3.90915e-07
1.70448e-06
-1.33475e-06
4.39654e-06
-2.60471e-06
6.23404e-06
-4.00554e-06
7.21575e-06
-5.38626e-06
7.42692e-06
-6.63906e-06
6.98827e-06
-7.69162e-06
6.02884e-06
-8.49756e-06
4.67142e-06
-9.02745e-06
3.02709e-06
-9.26193e-06
1.19645e-06
-9.18768e-06
-7.24601e-07
-8.79656e-06
-2.63692e-06
-8.08854e-06
-4.42968e-06
-7.07831e-06
-5.97348e-06
-5.80575e-06
-7.11754e-06
-4.34862e-06
-7.69473e-06
-2.83454e-06
-7.53792e-06
-1.44695e-06
-6.5097e-06
-4.18055e-07
-4.54588e-06
-1.71938e-06
-4.53442e-07
2.15793e-06
-1.52564e-06
5.46874e-06
-2.93481e-06
7.6432e-06
-4.44999e-06
8.73094e-06
-5.90616e-06
8.88308e-06
-7.1976e-06
8.27971e-06
-8.2634e-06
7.09464e-06
-9.07177e-06
5.47979e-06
-9.60654e-06
3.56186e-06
-9.85725e-06
1.44715e-06
-9.81307e-06
-7.68776e-07
-9.46104e-06
-2.98895e-06
-8.78879e-06
-5.10193e-06
-7.79272e-06
-6.96955e-06
-6.49197e-06
-8.41829e-06
-4.94778e-06
-9.23892e-06
-3.28498e-06
-9.20072e-06
-1.70861e-06
-8.08607e-06
-5.03565e-07
-5.75093e-06
-2.22294e-06
-5.28357e-07
2.68628e-06
-1.73972e-06
6.68011e-06
-3.27809e-06
9.18157e-06
-4.8718e-06
1.03246e-05
-6.34723e-06
1.03585e-05
-7.61108e-06
9.54357e-06
-8.62464e-06
8.1082e-06
-9.37999e-06
6.23513e-06
-9.88129e-06
4.06317e-06
-1.01318e-05
1.69768e-06
-1.0126e-05
-7.74551e-07
-9.84656e-06
-3.26844e-06
-9.26617e-06
-5.68232e-06
-8.35647e-06
-7.87925e-06
-7.10479e-06
-9.66997e-06
-5.54075e-06
-1.08029e-05
-3.77073e-06
-1.09707e-05
-2.01217e-06
-9.84463e-06
-6.09689e-07
-7.15341e-06
-2.83263e-06
-6.23718e-07
3.31e-06
-1.98755e-06
8.04394e-06
-3.63221e-06
1.08262e-05
-5.24238e-06
1.19348e-05
-6.64817e-06
1.17643e-05
-7.7852e-06
1.06806e-05
-8.65184e-06
8.97484e-06
-9.2752e-06
6.85849e-06
-9.68747e-06
4.47543e-06
-9.91074e-06
1.92096e-06
-9.94812e-06
-7.37177e-07
-9.77939e-06
-3.43716e-06
-9.36159e-06
-6.10012e-06
-8.63619e-06
-8.60465e-06
-7.54682e-06
-1.07593e-05
-6.07188e-06
-1.22779e-05
-4.27445e-06
-1.27682e-05
-2.36373e-06
-1.17553e-05
-7.44801e-07
-8.77235e-06
-3.57743e-06
-7.54153e-07
4.06415e-06
-2.28459e-06
9.57438e-06
-3.98746e-06
1.25291e-05
-5.50978e-06
1.34571e-05
-6.71052e-06
1.2965e-05
-7.57967e-06
1.15498e-05
-8.17134e-06
9.5665e-06
-8.55904e-06
7.24619e-06
-8.8092e-06
4.7256e-06
-8.96653e-06
2.07829e-06
-9.0458e-06
-6.57913e-07
-9.02707e-06
-3.45589e-06
-8.85376e-06
-6.27343e-06
-8.43579e-06
-9.02262e-06
-7.66366e-06
-1.15315e-05
-6.44253e-06
-1.3499e-05
-4.75658e-06
-1.44541e-05
-2.76691e-06
-1.3745e-05
-9.2248e-07
-1.06168e-05
-4.49991e-06
-9.45298e-07
5.00945e-06
-2.64878e-06
1.12779e-05
-4.31154e-06
1.41919e-05
-5.57413e-06
1.47197e-05
-6.37179e-06
1.37627e-05
-6.78464e-06
1.19626e-05
-6.94207e-06
9.72393e-06
-6.97146e-06
7.27558e-06
-6.97459e-06
4.72873e-06
-7.01833e-06
2.12202e-06
-7.13037e-06
-5.45868e-07
-7.2954e-06
-3.29086e-06
-7.45009e-06
-6.11874e-06
-7.47911e-06
-8.9936e-06
-7.21889e-06
-1.17917e-05
-6.48344e-06
-1.42345e-05
-5.13386e-06
-1.58037e-05
-3.2152e-06
-1.56637e-05
-1.16445e-06
-1.26675e-05
-5.66436e-06
-1.23741e-06
6.24686e-06
-3.08359e-06
1.3124e-05
-4.50828e-06
1.56166e-05
-5.23536e-06
1.54468e-05
-5.3564e-06
1.38837e-05
-5.08329e-06
1.16895e-05
-4.6326e-06
9.27324e-06
-4.18114e-06
6.82412e-06
-3.85635e-06
4.40394e-06
-3.73904e-06
2.00472e-06
-3.8671e-06
-4.17814e-07
-4.23448e-06
-2.92348e-06
-4.78372e-06
-5.5695e-06
-5.39245e-06
-8.38487e-06
-5.85959e-06
-1.13246e-05
-5.90736e-06
-1.41867e-05
-5.23332e-06
-1.64777e-05
-3.66652e-06
-1.72305e-05
-1.50015e-06
-1.48339e-05
-7.16451e-06
-1.67389e-06
7.92075e-06
-3.51364e-06
1.49638e-05
-4.31583e-06
1.64187e-05
-4.08969e-06
1.52207e-05
-3.19417e-06
1.29882e-05
-2.00015e-06
1.04955e-05
-7.96809e-07
8.06989e-06
2.17473e-07
5.80984e-06
9.16244e-07
3.70517e-06
1.22357e-06
1.69739e-06
1.10007e-06
-2.94314e-07
5.39192e-07
-2.3626e-06
-4.24602e-07
-4.6057e-06
-1.69399e-06
-7.11549e-06
-3.07353e-06
-9.945e-06
-4.23164e-06
-1.30286e-05
-4.69617e-06
-1.60132e-05
-3.96744e-06
-1.79592e-05
-1.945e-06
-1.68563e-05
-9.10951e-06
-2.23075e-06
1.01515e-05
-3.5905e-06
1.63236e-05
-3.0782e-06
1.59064e-05
-1.34455e-06
1.3487e-05
8.96084e-07
1.07476e-05
3.15375e-06
8.23782e-06
5.13665e-06
6.08699e-06
6.68703e-06
4.25946e-06
7.72405e-06
2.66816e-06
8.20472e-06
1.21672e-06
8.10208e-06
-1.91678e-07
7.39733e-06
-1.65785e-06
6.08533e-06
-3.2937e-06
4.19789e-06
-5.22804e-06
1.85312e-06
-7.60024e-06
-6.62466e-07
-1.0513e-05
-2.79266e-06
-1.3883e-05
-3.66233e-06
-1.70895e-05
-2.41161e-06
-1.81071e-05
-1.15211e-05
-2.57384e-06
1.27253e-05
-2.18358e-06
1.59333e-05
7.17798e-07
1.30051e-05
4.4691e-06
9.73571e-06
8.13259e-06
7.08409e-06
1.13006e-05
5.06976e-06
1.3828e-05
3.55968e-06
1.56868e-05
2.40062e-06
1.68903e-05
1.46469e-06
1.74534e-05
6.53562e-07
1.73749e-05
-1.13178e-07
1.66291e-05
-9.1207e-07
1.5166e-05
-1.83053e-06
1.29225e-05
-2.98456e-06
9.86093e-06
-4.53869e-06
6.06137e-06
-6.71343e-06
1.91196e-06
-9.73361e-06
-1.55981e-06
-1.36178e-05
-2.45839e-06
-1.72085e-05
-1.39795e-05
-7.85011e-07
1.35103e-05
4.08076e-06
1.10675e-05
1.02974e-05
6.7884e-06
1.57934e-05
4.23975e-06
2.01576e-05
2.71985e-06
2.34575e-05
1.76988e-06
2.58601e-05
1.15708e-06
2.75207e-05
7.40007e-07
2.85532e-05
4.32265e-07
2.90255e-05
1.81212e-07
2.89613e-05
-4.89727e-08
2.83379e-05
-2.88674e-07
2.70811e-05
-5.73701e-07
2.50544e-05
-9.57908e-07
2.20512e-05
-1.53547e-06
1.78151e-05
-2.47736e-06
1.21722e-05
-4.09063e-06
5.47762e-06
-6.9232e-06
-1.29197e-07
-1.16017e-05
-1.41087e-05
1.35103e-05
2.45779e-05
3.13663e-05
3.5606e-05
3.83259e-05
4.00957e-05
4.12528e-05
4.19928e-05
4.24251e-05
4.26063e-05
4.25573e-05
4.22687e-05
4.1695e-05
4.0737e-05
3.92016e-05
3.67242e-05
3.26336e-05
2.57104e-05
1.41087e-05
)
;

boundaryField
{
    movingWall
    {
        type            calculated;
        value           uniform 0;
    }
    fixedWalls
    {
        type            calculated;
        value           uniform 0;
    }
    frontAndBack
    {
        type            empty;
        value           nonuniform List<scalar> 0();
    }
}


// ************************************************************************* //
