/*--------------------------------*- C++ -*----------------------------------*\
| =========                 |                                                 |
| \\      /  F ield         | OpenFOAM: The Open Source CFD Toolbox           |
|  \\    /   O peration     | Version:  v2106                                 |
|   \\  /    A nd           | Website:  www.openfoam.com                      |
|    \\/     M anipulation  |                                                 |
\*---------------------------------------------------------------------------*/
FoamFile
{
    version     2.0;
    format      ascii;
    arch        "LSB;label=32;scalar=64";
    class       surfaceScalarField;
    location    "0.1";
    object      phi;
}
// * * * * * * * * * * * * * * * * * * * * * * * * * * * * * * * * * * * * * //

dimensions      [0 3 -1 0 0 0 0];

oriented        oriented;

internalField   nonuniform List<scalar> 
760
(
1.39955e-08
-1.39955e-08
-2.1916e-08
3.59123e-08
-1.12538e-07
9.06221e-08
-2.41652e-07
1.29115e-07
-3.89788e-07
1.48135e-07
-5.38544e-07
1.48755e-07
-6.72101e-07
1.33558e-07
-7.77795e-07
1.05693e-07
-8.46233e-07
6.8437e-08
-8.71341e-07
2.51089e-08
-8.50512e-07
-2.08264e-08
-7.84852e-07
-6.56603e-08
-6.79474e-07
-1.05378e-07
-5.43737e-07
-1.35737e-07
-3.91262e-07
-1.52475e-07
-2.39488e-07
-1.51775e-07
-1.08436e-07
-1.31052e-07
-1.83527e-08
-9.00829e-08
1.53892e-08
-3.37421e-08
1.53889e-08
-3.36646e-08
1.96688e-08
-1.77457e-07
1.79705e-07
-4.26911e-07
3.40076e-07
-7.51847e-07
4.5405e-07
-1.11341e-06
5.09695e-07
-1.47221e-06
5.07554e-07
-1.79271e-06
4.54065e-07
-2.04554e-06
3.58522e-07
-2.20857e-06
2.3146e-07
-2.26754e-06
8.40843e-08
-2.21662e-06
-7.17431e-08
-2.0589e-06
-2.23386e-07
-1.80683e-06
-3.57445e-07
-1.48244e-06
-4.60127e-07
-1.11679e-06
-5.18124e-07
-7.48322e-07
-5.20246e-07
-4.19382e-07
-4.59993e-07
-1.70387e-07
-3.39078e-07
-3.04495e-08
-1.7368e-07
-1.5061e-08
-9.0727e-08
1.10396e-07
-3.51222e-07
4.402e-07
-7.52161e-07
7.41014e-07
-1.2478e-06
9.4969e-07
-1.78492e-06
1.04681e-06
-2.31029e-06
1.03292e-06
-2.77569e-06
9.19473e-07
-3.141e-06
7.23823e-07
-3.37582e-06
4.66288e-07
-3.46063e-06
1.68888e-07
-3.38744e-06
-1.44929e-07
-3.16057e-06
-4.50254e-07
-2.79713e-06
-7.20883e-07
-2.32715e-06
-9.30114e-07
-1.79274e-06
-1.05254e-06
-1.24582e-06
-1.06717e-06
-7.4368e-07
-9.62128e-07
-3.4212e-07
-7.40639e-07
-8.61501e-08
-4.2965e-07
-1.01211e-07
-1.4293e-07
2.53325e-07
-5.1734e-07
8.14611e-07
-1.06496e-06
1.28863e-06
-1.7205e-06
1.60523e-06
-2.41623e-06
1.74254e-06
-3.08746e-06
1.70416e-06
-3.67686e-06
1.50887e-06
-4.13711e-06
1.18408e-06
-4.43259e-06
7.61767e-07
-4.54032e-06
2.76614e-07
-4.45074e-06
-2.34508e-07
-4.16849e-06
-7.32501e-07
-3.71309e-06
-1.17628e-06
-3.11928e-06
-1.52393e-06
-2.43644e-06
-1.73538e-06
-1.72651e-06
-1.7771e-06
-1.05975e-06
-1.62889e-06
-5.08177e-07
-1.29221e-06
-1.37443e-07
-8.00384e-07
-2.38655e-07
-1.90837e-07
4.44162e-07
-6.7541e-07
1.29918e-06
-1.36633e-06
1.97955e-06
-2.17648e-06
2.41538e-06
-3.02258e-06
2.58863e-06
-3.82919e-06
2.51077e-06
-4.53168e-06
2.21136e-06
-5.07787e-06
1.73027e-06
-5.42888e-06
1.11278e-06
-5.55957e-06
4.07304e-07
-5.45901e-06
-3.35071e-07
-5.13123e-06
-1.06028e-06
-4.59624e-06
-1.71127e-06
-3.89096e-06
-2.22921e-06
-3.06954e-06
-2.5568e-06
-2.20227e-06
-2.64436e-06
-1.37236e-06
-2.4588e-06
-6.7016e-07
-1.99441e-06
-1.85452e-07
-1.28509e-06
-4.24107e-07
-2.37011e-07
6.81173e-07
-8.30346e-07
1.89252e-06
-1.66337e-06
2.81258e-06
-2.62557e-06
3.37757e-06
-3.61722e-06
3.58028e-06
-4.55253e-06
3.44608e-06
-5.36097e-06
3.0198e-06
-5.98738e-06
2.35667e-06
-6.39134e-06
1.51674e-06
-6.5466e-06
5.62563e-07
-6.44094e-06
-4.40723e-07
-6.07685e-06
-1.42438e-06
-5.4729e-06
-2.31522e-06
-4.66577e-06
-3.03634e-06
-3.71207e-06
-3.5105e-06
-2.68912e-06
-3.66732e-06
-1.69337e-06
-3.45454e-06
-8.35787e-07
-2.852e-06
-2.33683e-07
-1.8872e-06
-6.5779e-07
-2.84002e-07
9.65174e-07
-9.87779e-07
2.59629e-06
-1.96364e-06
3.78845e-06
-3.0759e-06
4.48983e-06
-4.20783e-06
4.71222e-06
-5.2641e-06
4.50235e-06
-6.17014e-06
3.92584e-06
-6.87002e-06
3.05656e-06
-7.32384e-06
1.97055e-06
-7.50552e-06
7.44243e-07
-7.40177e-06
-5.44473e-07
-7.01247e-06
-1.81368e-06
-6.35264e-06
-2.97505e-06
-5.4558e-06
-3.93317e-06
-4.37803e-06
-4.58827e-06
-3.20146e-06
-4.84389e-06
-2.03554e-06
-4.62046e-06
-1.01397e-06
-3.87357e-06
-2.85853e-07
-2.61531e-06
-9.43643e-07
-3.34099e-07
1.29927e-06
-1.15281e-06
3.41501e-06
-2.27304e-06
4.90868e-06
-3.5314e-06
5.74819e-06
-4.79399e-06
5.97481e-06
-5.95774e-06
5.6661e-06
-6.94705e-06
4.91515e-06
-7.70853e-06
3.81804e-06
-8.20561e-06
2.46764e-06
-8.4143e-06
9.52932e-07
-8.32077e-06
-6.37998e-07
-7.92132e-06
-2.21313e-06
-7.22484e-06
-3.67153e-06
-6.25784e-06
-4.90018e-06
-5.07137e-06
-5.77474e-06
-3.7485e-06
-6.16676e-06
-2.40977e-06
-5.9592e-06
-1.21324e-06
-5.0701e-06
-3.45566e-07
-3.48298e-06
-1.28921e-06
-3.89511e-07
1.68878e-06
-1.32996e-06
4.35546e-06
-2.59516e-06
6.17388e-06
-3.99036e-06
7.14338e-06
-5.36507e-06
7.34952e-06
-6.61197e-06
6.913e-06
-7.65921e-06
5.9624e-06
-8.46085e-06
4.61967e-06
-8.98779e-06
2.99457e-06
-9.22092e-06
1.18606e-06
-9.14703e-06
-7.11891e-07
-8.75798e-06
-2.60218e-06
-8.05359e-06
-4.37592e-06
-7.04833e-06
-5.90544e-06
-5.78171e-06
-7.04136e-06
-4.33103e-06
-7.61744e-06
-2.82331e-06
-7.46692e-06
-1.44131e-06
-6.4521e-06
-4.16426e-07
-4.50786e-06
-1.70564e-06
-4.52993e-07
2.14178e-06
-1.52404e-06
5.42651e-06
-2.93144e-06
7.58128e-06
-4.44436e-06
8.6563e-06
-5.8979e-06
8.80306e-06
-7.18657e-06
8.20166e-06
-8.24967e-06
7.0255e-06
-9.05565e-06
5.42565e-06
-9.58856e-06
3.52748e-06
-9.83806e-06
1.43557e-06
-9.79345e-06
-7.56502e-07
-9.4418e-06
-2.95383e-06
-8.77076e-06
-5.04696e-06
-7.77668e-06
-6.89951e-06
-6.47863e-06
-8.33941e-06
-4.93765e-06
-9.15841e-06
-3.27829e-06
-9.12628e-06
-1.70513e-06
-8.02526e-06
-5.02526e-07
-5.71046e-06
-2.20816e-06
-5.28958e-07
2.67074e-06
-1.7416e-06
6.63915e-06
-3.28147e-06
9.12115e-06
-4.87656e-06
1.02514e-05
-6.35306e-06
1.02796e-05
-7.61754e-06
9.46615e-06
-8.63129e-06
8.03925e-06
-9.38641e-06
6.18076e-06
-9.8871e-06
4.02817e-06
-1.01367e-05
1.68516e-06
-1.01297e-05
-7.63464e-07
-9.84891e-06
-3.23465e-06
-9.26716e-06
-5.62871e-06
-8.35623e-06
-7.81044e-06
-7.10366e-06
-9.59199e-06
-5.5392e-06
-1.07229e-05
-3.76927e-06
-1.08962e-05
-2.01121e-06
-9.78332e-06
-6.09335e-07
-7.11234e-06
-2.8175e-06
-6.25341e-07
3.29608e-06
-1.9928e-06
8.00661e-06
-3.64213e-06
1.07705e-05
-5.25725e-06
1.18665e-05
-6.66774e-06
1.169e-05
-7.80882e-06
1.06072e-05
-8.67859e-06
8.90903e-06
-9.30398e-06
6.80615e-06
-9.71704e-06
4.44123e-06
-9.93982e-06
1.90794e-06
-9.97542e-06
-7.27861e-07
-9.80377e-06
-3.4063e-06
-9.38214e-06
-6.05035e-06
-8.65236e-06
-8.54022e-06
-7.55848e-06
-1.06859e-05
-6.0794e-06
-1.2202e-05
-4.27857e-06
-1.2697e-05
-2.36546e-06
-1.16964e-05
-7.45186e-07
-8.73261e-06
-3.56268e-06
-7.56634e-07
4.05271e-06
-2.29268e-06
9.54265e-06
-4.00292e-06
1.24807e-05
-5.53329e-06
1.33969e-05
-6.74196e-06
1.28987e-05
-7.61827e-06
1.14835e-05
-8.21583e-06
9.50659e-06
-8.60776e-06
7.19808e-06
-8.8602e-06
4.69367e-06
-9.01764e-06
2.06538e-06
-9.09482e-06
-6.50682e-07
-9.07194e-06
-3.42919e-06
-8.89271e-06
-6.22958e-06
-8.46755e-06
-8.96537e-06
-7.68763e-06
-1.14658e-05
-6.45887e-06
-1.34307e-05
-4.76619e-06
-1.43897e-05
-2.77131e-06
-1.36913e-05
-9.2361e-07
-1.05803e-05
-4.48629e-06
-9.48334e-07
5.00104e-06
-2.65875e-06
1.12531e-05
-4.33076e-06
1.41527e-05
-5.60369e-06
1.46698e-05
-6.41178e-06
1.37068e-05
-6.83432e-06
1.19061e-05
-7.00001e-06
9.67227e-06
-7.03562e-06
7.23369e-06
-7.04246e-06
4.70052e-06
-7.08708e-06
2.11e-06
-7.19705e-06
-5.40712e-07
-7.35715e-06
-3.26908e-06
-7.50443e-06
-6.0823e-06
-7.52413e-06
-8.94568e-06
-7.25351e-06
-1.17364e-05
-6.50754e-06
-1.41767e-05
-5.14839e-06
-1.57489e-05
-3.22204e-06
-1.56177e-05
-1.16627e-06
-1.26361e-05
-5.65257e-06
-1.24058e-06
6.24163e-06
-3.09414e-06
1.31066e-05
-4.5289e-06
1.55875e-05
-5.26753e-06
1.54084e-05
-5.40053e-06
1.38398e-05
-5.13885e-06
1.16444e-05
-4.69815e-06
9.23157e-06
-4.2545e-06
6.79004e-06
-3.93468e-06
4.3807e-06
-3.81907e-06
1.99439e-06
-3.94536e-06
-4.14426e-07
-4.30759e-06
-2.90685e-06
-4.84865e-06
-5.54124e-06
-5.44683e-06
-8.3475e-06
-5.90192e-06
-1.12813e-05
-5.93726e-06
-1.41413e-05
-5.25163e-06
-1.64345e-05
-3.67531e-06
-1.7194e-05
-1.50256e-06
-1.48088e-05
-7.15512e-06
-1.67672e-06
7.91835e-06
-3.52333e-06
1.49532e-05
-4.33526e-06
1.63994e-05
-4.12069e-06
1.51939e-05
-3.23755e-06
1.29567e-05
-2.0557e-06
1.04626e-05
-8.63302e-07
8.03917e-06
1.42192e-07
5.78454e-06
8.35103e-07
3.68778e-06
1.14002e-06
1.68947e-06
1.01781e-06
-2.92211e-07
4.61844e-07
-2.35089e-06
-4.93776e-07
-4.58562e-06
-1.75237e-06
-7.0889e-06
-3.11942e-06
-9.91426e-06
-4.26441e-06
-1.29963e-05
-4.7165e-06
-1.59824e-05
-3.97736e-06
-1.79331e-05
-1.94777e-06
-1.68384e-05
-9.1029e-06
-2.23279e-06
1.01511e-05
-3.59802e-06
1.63185e-05
-3.09405e-06
1.58955e-05
-1.37087e-06
1.34707e-05
8.58085e-07
1.07277e-05
3.10391e-06
8.21673e-06
5.07591e-06
6.06717e-06
6.61736e-06
4.2431e-06
7.64822e-06
2.65692e-06
8.1261e-06
1.2116e-06
8.02428e-06
-1.90387e-07
7.32387e-06
-1.65048e-06
6.01936e-06
-3.28111e-06
4.14193e-06
-5.21148e-06
1.80888e-06
-7.58121e-06
-6.94325e-07
-1.04931e-05
-2.81263e-06
-1.38641e-05
-3.6722e-06
-1.70736e-05
-2.41442e-06
-1.80962e-05
-1.15173e-05
-2.57482e-06
1.27259e-05
-2.18808e-06
1.59317e-05
7.07123e-07
1.30003e-05
4.45e-06
9.72782e-06
8.10361e-06
7.0741e-06
1.12613e-05
5.05901e-06
1.3779e-05
3.54955e-06
1.56297e-05
2.39231e-06
1.68276e-05
1.45905e-06
1.73881e-05
6.5108e-07
1.73101e-05
-1.12398e-07
1.65679e-05
-9.08255e-07
1.5111e-05
-1.82417e-06
1.28758e-05
-2.97634e-06
9.82402e-06
-4.52938e-06
6.03473e-06
-6.70385e-06
1.8952e-06
-9.72459e-06
-1.56813e-06
-1.36102e-05
-2.46078e-06
-1.72035e-05
-1.39781e-05
-7.84955e-07
1.35109e-05
4.0793e-06
1.10675e-05
1.02923e-05
6.78724e-06
1.57826e-05
4.2375e-06
2.01398e-05
2.71688e-06
2.34322e-05
1.76666e-06
2.58277e-05
1.15408e-06
2.74824e-05
7.37594e-07
2.85107e-05
4.30692e-07
2.89812e-05
1.80602e-07
2.89174e-05
-4.86177e-08
2.82966e-05
-2.87451e-07
2.70443e-05
-5.71786e-07
2.50234e-05
-9.55517e-07
2.20269e-05
-1.53284e-06
1.77978e-05
-2.47473e-06
1.21614e-05
-4.08822e-06
5.47243e-06
-6.92126e-06
-1.30575e-07
-1.16005e-05
-1.41087e-05
1.35109e-05
2.45784e-05
3.13656e-05
3.56031e-05
3.832e-05
4.00867e-05
4.12407e-05
4.19783e-05
4.2409e-05
4.25896e-05
4.2541e-05
4.22536e-05
4.16818e-05
4.07263e-05
3.91934e-05
3.67187e-05
3.26305e-05
2.57092e-05
1.41087e-05
)
;

boundaryField
{
    movingWall
    {
        type            calculated;
        value           uniform 0;
    }
    fixedWalls
    {
        type            calculated;
        value           uniform 0;
    }
    frontAndBack
    {
        type            empty;
        value           nonuniform List<scalar> 0();
    }
}


// ************************************************************************* //
