/*--------------------------------*- C++ -*----------------------------------*\
| =========                 |                                                 |
| \\      /  F ield         | OpenFOAM: The Open Source CFD Toolbox           |
|  \\    /   O peration     | Version:  v2106                                 |
|   \\  /    A nd           | Website:  www.openfoam.com                      |
|    \\/     M anipulation  |                                                 |
\*---------------------------------------------------------------------------*/
FoamFile
{
    version     2.0;
    format      ascii;
    arch        "LSB;label=32;scalar=64";
    class       surfaceScalarField;
    location    "0.3";
    object      phi;
}
// * * * * * * * * * * * * * * * * * * * * * * * * * * * * * * * * * * * * * //

dimensions      [0 3 -1 0 0 0 0];

oriented        oriented;

internalField   nonuniform List<scalar> 
370
(
-8.64248e-07
-2.13268e-08
-7.97321e-07
-6.69276e-08
-6.90027e-07
-1.07294e-07
-5.51928e-07
-1.381e-07
-3.96913e-07
-1.55015e-07
-2.42732e-07
-1.54181e-07
-1.09727e-07
-1.33005e-07
-1.84166e-08
-9.13105e-08
1.56875e-08
-3.41043e-08
1.56875e-08
-2.25373e-06
-7.3458e-08
-2.09289e-06
-2.27766e-07
-1.83613e-06
-3.64062e-07
-1.50593e-06
-4.68294e-07
-1.134e-06
-5.26948e-07
-7.59469e-07
-5.28714e-07
-4.25372e-07
-4.67103e-07
-1.72682e-07
-3.44002e-07
-3.08008e-08
-1.75985e-07
-1.51133e-08
-3.44331e-06
-1.48389e-07
-3.21202e-06
-4.59061e-07
-2.84189e-06
-7.34183e-07
-2.36363e-06
-9.46559e-07
-1.82018e-06
-1.07039e-06
-1.2644e-06
-1.0845e-06
-7.5447e-07
-9.77031e-07
-3.46947e-07
-7.51525e-07
-8.73303e-08
-4.35602e-07
-1.02443e-07
-4.51992e-06
-2.40047e-07
-4.23242e-06
-7.46559e-07
-3.76909e-06
-1.19751e-06
-3.16541e-06
-1.55024e-06
-2.4717e-06
-1.7641e-06
-1.75095e-06
-1.80525e-06
-1.07444e-06
-1.65354e-06
-5.15104e-07
-1.31086e-06
-1.39306e-07
-8.114e-07
-2.41749e-07
-5.53537e-06
-3.42804e-07
-5.20201e-06
-1.07991e-06
-4.65856e-06
-1.74096e-06
-3.94269e-06
-2.26611e-06
-3.1095e-06
-2.5973e-06
-2.23035e-06
-2.6844e-06
-1.38955e-06
-2.49435e-06
-6.78455e-07
-2.02195e-06
-1.87755e-07
-1.3021e-06
-4.29504e-07
-6.51793e-06
-4.50524e-07
-6.14844e-06
-1.4494e-06
-5.53622e-06
-2.35318e-06
-4.71866e-06
-3.08368e-06
-3.75325e-06
-3.5627e-06
-2.71833e-06
-3.71932e-06
-1.71145e-06
-3.50123e-06
-8.44616e-07
-2.88878e-06
-2.36166e-07
-1.91055e-06
-6.6567e-07
-7.47282e-06
-5.55975e-07
-7.0788e-06
-1.84343e-06
-6.4116e-06
-3.02038e-06
-5.50535e-06
-3.98993e-06
-4.41688e-06
-4.65117e-06
-3.22924e-06
-4.90696e-06
-2.05287e-06
-4.6776e-06
-1.0225e-06
-3.91915e-06
-2.88269e-07
-2.64478e-06
-9.53939e-07
-8.37969e-06
-6.50619e-07
-7.97665e-06
-2.24647e-06
-7.27436e-06
-3.72266e-06
-6.29977e-06
-4.96452e-06
-5.10453e-06
-5.84641e-06
-3.77243e-06
-6.23906e-06
-2.42482e-06
-6.0252e-06
-1.22071e-06
-5.12326e-06
-3.47698e-07
-3.51779e-06
-1.30164e-06
-9.18848e-06
-7.24887e-07
-8.79732e-06
-2.63763e-06
-8.08922e-06
-4.43076e-06
-7.0789e-06
-5.97484e-06
-5.80623e-06
-7.11908e-06
-4.34898e-06
-7.69632e-06
-2.83477e-06
-7.53941e-06
-1.44707e-06
-6.51096e-06
-4.18092e-07
-4.54677e-06
-1.71973e-06
-9.81338e-06
-7.69058e-07
-9.46134e-06
-2.98967e-06
-8.78907e-06
-5.10303e-06
-7.79297e-06
-6.97095e-06
-6.49218e-06
-8.41987e-06
-4.94795e-06
-9.24055e-06
-3.2851e-06
-9.20226e-06
-1.70867e-06
-8.08739e-06
-5.03584e-07
-5.75185e-06
-2.22331e-06
-1.01258e-05
-7.74811e-07
-9.84638e-06
-3.26913e-06
-9.26603e-06
-5.68338e-06
-8.35636e-06
-7.88061e-06
-7.10471e-06
-9.67152e-06
-5.54071e-06
-1.08046e-05
-3.77071e-06
-1.09723e-05
-2.01217e-06
-9.84593e-06
-6.09688e-07
-7.15433e-06
-2.833e-06
-9.9474e-06
-7.37399e-07
-9.77873e-06
-3.43779e-06
-9.36102e-06
-6.1011e-06
-8.63572e-06
-8.60591e-06
-7.54646e-06
-1.07608e-05
-6.07164e-06
-1.22794e-05
-4.2743e-06
-1.27696e-05
-2.36366e-06
-1.17566e-05
-7.4478e-07
-8.77321e-06
-3.57778e-06
-9.04464e-06
-6.5809e-07
-9.026e-06
-3.45643e-06
-8.85282e-06
-6.27428e-06
-8.435e-06
-9.02372e-06
-7.66305e-06
-1.15327e-05
-6.4421e-06
-1.35003e-05
-4.75631e-06
-1.44554e-05
-2.76677e-06
-1.37461e-05
-9.22441e-07
-1.06175e-05
-4.50022e-06
-7.12888e-06
-5.45998e-07
-7.29402e-06
-3.29129e-06
-7.44887e-06
-6.11943e-06
-7.47808e-06
-8.99451e-06
-7.21808e-06
-1.17927e-05
-6.48286e-06
-1.42356e-05
-5.1335e-06
-1.58047e-05
-3.21501e-06
-1.56646e-05
-1.16439e-06
-1.26682e-05
-5.66462e-06
-3.86543e-06
-4.17902e-07
-4.23292e-06
-2.9238e-06
-4.78233e-06
-5.57003e-06
-5.39128e-06
-8.38556e-06
-5.85866e-06
-1.13253e-05
-5.90669e-06
-1.41875e-05
-5.23289e-06
-1.64785e-05
-3.6663e-06
-1.72312e-05
-1.50009e-06
-1.48344e-05
-7.16471e-06
1.10175e-06
-2.94368e-07
5.40767e-07
-2.36282e-06
-4.23191e-07
-4.60607e-06
-1.69279e-06
-7.11596e-06
-3.07258e-06
-9.94555e-06
-4.23094e-06
-1.30292e-05
-4.69572e-06
-1.60138e-05
-3.96722e-06
-1.79597e-05
-1.94493e-06
-1.68567e-05
-9.10964e-06
8.10359e-06
-1.91709e-07
7.39876e-06
-1.65798e-06
6.08661e-06
-3.29392e-06
4.19898e-06
-5.22833e-06
1.85399e-06
-7.60056e-06
-6.61833e-07
-1.05133e-05
-2.79225e-06
-1.38833e-05
-3.66213e-06
-1.70898e-05
-2.41155e-06
-1.81072e-05
-1.15212e-05
1.73761e-05
-1.13196e-07
1.66303e-05
-9.12136e-07
1.5167e-05
-1.83063e-06
1.29233e-05
-2.9847e-06
9.86161e-06
-4.53884e-06
6.06187e-06
-6.71359e-06
1.91228e-06
-9.73376e-06
-1.55966e-06
-1.36179e-05
-2.45835e-06
-1.72086e-05
-1.39795e-05
2.8962e-05
-4.89795e-08
2.83386e-05
-2.88694e-07
2.70817e-05
-5.73733e-07
2.50549e-05
-9.57946e-07
2.20516e-05
-1.53551e-06
1.78154e-05
-2.4774e-06
1.21723e-05
-4.09067e-06
5.4777e-06
-6.92323e-06
-1.29175e-07
-1.16017e-05
-1.41087e-05
4.25576e-05
4.22689e-05
4.16952e-05
4.07372e-05
3.92017e-05
3.67243e-05
3.26336e-05
2.57104e-05
1.41087e-05
)
;

boundaryField
{
    movingWall
    {
        type            calculated;
        value           uniform 0;
    }
    fixedWalls
    {
        type            calculated;
        value           uniform 0;
    }
    frontAndBack
    {
        type            empty;
        value           nonuniform List<scalar> 0();
    }
    procBoundary0to1
    {
        type            processor;
        value           nonuniform List<scalar> 
20
(
8.85558e-07
2.30586e-06
3.51824e-06
4.61158e-06
5.63812e-06
6.62565e-06
7.57827e-06
8.47434e-06
9.26274e-06
9.85755e-06
1.01316e-05
9.90999e-06
8.96533e-06
7.01679e-06
3.73734e-06
-1.22528e-06
-8.20624e-06
-1.74546e-05
-2.90263e-05
-4.26066e-05
)
;
    }
}


// ************************************************************************* //
