/*--------------------------------*- C++ -*----------------------------------*\
| =========                 |                                                 |
| \\      /  F ield         | OpenFOAM: The Open Source CFD Toolbox           |
|  \\    /   O peration     | Version:  v2106                                 |
|   \\  /    A nd           | Website:  www.openfoam.com                      |
|    \\/     M anipulation  |                                                 |
\*---------------------------------------------------------------------------*/
FoamFile
{
    version     2.0;
    format      ascii;
    arch        "LSB;label=32;scalar=64";
    class       volScalarField;
    location    "0.3";
    object      p;
}
// * * * * * * * * * * * * * * * * * * * * * * * * * * * * * * * * * * * * * //

dimensions      [0 2 -2 0 0 0 0];

internalField   nonuniform List<scalar> 
400
(
-0.0432346
-0.0490637
-0.0562008
-0.0616521
-0.063669
-0.0614751
-0.0550109
-0.0447214
-0.0314015
-0.0160912
1.77822e-06
0.01558
0.0293347
0.0400639
0.0468081
0.0490226
0.0467824
0.0410016
0.0336396
0.0278269
-0.0374595
-0.0434582
-0.0490433
-0.0527812
-0.0538372
-0.0516709
-0.0462083
-0.0377647
-0.0269367
-0.0145288
-0.00149166
0.0111438
0.0223437
0.0311669
0.0368772
0.039073
0.0378352
0.0338136
0.0280339
0.0220784
-0.0299072
-0.0382076
-0.0442357
-0.0476629
-0.0485123
-0.0465032
-0.041637
-0.034212
-0.0247379
-0.0138912
-0.00247563
0.00862811
0.0185266
0.0263943
0.031565
0.0336365
0.0326006
0.0288456
0.0225662
0.0142972
-0.0231043
-0.0345463
-0.0420154
-0.0459091
-0.0469622
-0.0451252
-0.0405085
-0.0334553
-0.0244597
-0.0141454
-0.00324879
0.00741298
0.0169917
0.0246746
0.029762
0.0317607
0.0305255
0.0262166
0.0183645
0.00686542
-0.0187425
-0.0334697
-0.0426519
-0.0472279
-0.0485427
-0.0467475
-0.0420653
-0.0349054
-0.025778
-0.0152911
-0.00415536
0.00682941
0.0168082
0.0249244
0.0303858
0.0325575
0.0311293
0.0260509
0.0162878
0.00130093
-0.0180668
-0.0360929
-0.0470438
-0.0522982
-0.0537526
-0.0517401
-0.0465966
-0.0388103
-0.0289263
-0.0175607
-0.005426
0.0066634
0.0178081
0.0270631
0.0334947
0.0362772
0.0348998
0.0290952
0.017302
-0.0013456
-0.0221506
-0.0435048
-0.0561759
-0.0619501
-0.06327
-0.0606536
-0.0545577
-0.0455588
-0.0342486
-0.0212628
-0.00732943
0.00670519
0.0198729
0.0311059
0.0392826
0.0433304
0.042482
0.0362091
0.0223834
-0.000163765
-0.0321001
-0.0568598
-0.0711158
-0.0770943
-0.0778431
-0.0740966
-0.0664516
-0.0555836
-0.0421334
-0.0267542
-0.0101856
0.00669531
0.0228449
0.0370513
0.0479621
0.0541915
0.054632
0.0483982
0.0326593
0.00588078
-0.0492083
-0.0775067
-0.0931097
-0.0987879
-0.0983289
-0.0927529
-0.0828314
-0.0693509
-0.0529944
-0.0344142
-0.0143362
0.00635612
0.0265599
0.0449167
0.0598095
0.0694631
0.0723126
0.0669541
0.0495971
0.0181751
-0.0750961
-0.107115
-0.123655
-0.128245
-0.125658
-0.117316
-0.104218
-0.0872733
-0.0671879
-0.0445731
-0.0200906
0.00542457
0.0308589
0.0547352
0.0751586
0.0898881
0.0967508
0.0935803
0.0752032
0.0386966
-0.111904
-0.14784
-0.164582
-0.166827
-0.160753
-0.148363
-0.130955
-0.109561
-0.0848726
-0.057391
-0.0276298
0.0037176
0.0356198
0.0665571
0.0943869
0.116348
0.129489
0.13054
0.112282
0.0703326
-0.162637
-0.202593
-0.218151
-0.215993
-0.204384
-0.186165
-0.162995
-0.136012
-0.105812
-0.0726824
-0.0368616
0.00123853
0.0408198
0.0804671
0.1179
0.149849
0.17243
0.180839
0.164812
0.117393
-0.231861
-0.275476
-0.287174
-0.277184
-0.25693
-0.23039
-0.199608
-0.165736
-0.129133
-0.0897066
-0.0472487
-0.00169571
0.0466071
0.0965937
0.146083
0.191452
0.227837
0.248426
0.238504
0.186536
-0.327206
-0.372538
-0.375066
-0.351515
-0.317944
-0.279676
-0.239
-0.196845
-0.153075
-0.106979
-0.0576719
-0.00437088
0.0533195
0.115041
0.179138
0.242051
0.298159
0.338336
0.341674
0.288593
-0.46255
-0.502905
-0.485585
-0.439028
-0.385365
-0.330976
-0.277852
-0.226165
-0.174844
-0.122219
-0.0664479
-0.00575889
0.0613184
0.135602
0.216625
0.301733
0.385378
0.456461
0.486435
0.44215
-0.663764
-0.679978
-0.621913
-0.537429
-0.454477
-0.378895
-0.311017
-0.249213
-0.190771
-0.132617
-0.0716599
-0.00488588
0.0705721
0.157236
0.256739
0.368788
0.489791
0.608536
0.689532
0.679154
-0.979157
-0.92175
-0.784978
-0.641186
-0.517631
-0.415897
-0.332106
-0.260999
-0.197189
-0.135699
-0.0719514
-0.0015386
0.0800286
0.177483
0.295689
0.438917
0.608758
0.798103
0.972031
1.05426
-1.51966
-1.24987
-0.963741
-0.734627
-0.560544
-0.430783
-0.333299
-0.256575
-0.19136
-0.130451
-0.0678121
0.00222308
0.0857026
0.189836
0.323867
0.499441
0.728055
1.01608
1.36005
1.6869
-2.58289
-1.67379
-1.08768
-0.754199
-0.538991
-0.395334
-0.29777
-0.226822
-0.169407
-0.116831
-0.0625038
-0.000447414
0.0759779
0.175548
0.311577
0.504747
0.783155
1.19334
1.86844
2.88095
-4.4099
-2.08787
-1.01678
-0.606422
-0.401089
-0.283389
-0.213361
-0.167023
-0.13072
-0.0967471
-0.0598893
-0.0155731
0.0413742
0.118496
0.229177
0.398864
0.674983
1.18247
2.3678
4.80529
)
;

boundaryField
{
    movingWall
    {
        type            zeroGradient;
    }
    fixedWalls
    {
        type            zeroGradient;
    }
    frontAndBack
    {
        type            empty;
    }
}


// ************************************************************************* //
