/*--------------------------------*- C++ -*----------------------------------*\
| =========                 |                                                 |
| \\      /  F ield         | OpenFOAM: The Open Source CFD Toolbox           |
|  \\    /   O peration     | Version:  v2106                                 |
|   \\  /    A nd           | Website:  www.openfoam.com                      |
|    \\/     M anipulation  |                                                 |
\*---------------------------------------------------------------------------*/
FoamFile
{
    version     2.0;
    format      ascii;
    arch        "LSB;label=32;scalar=64";
    class       volVectorField;
    location    "0.3";
    object      U;
}
// * * * * * * * * * * * * * * * * * * * * * * * * * * * * * * * * * * * * * //

dimensions      [0 1 -1 0 0 0 0];

internalField   nonuniform List<vector> 
400
(
(0.000253557 -0.000250221 0)
(0.000141456 0.000111532 0)
(-0.00117677 0.000564599 0)
(-0.00348077 0.000884918 0)
(-0.00637691 0.00104561 0)
(-0.00946863 0.00106164 0)
(-0.0124019 0.000957753 0)
(-0.0148836 0.000760362 0)
(-0.0166881 0.000494588 0)
(-0.0176568 0.000184509 0)
(-0.0177007 -0.000145334 0)
(-0.0168038 -0.000468358 0)
(-0.0150289 -0.000755356 0)
(-0.0125242 -0.000974181 0)
(-0.0095257 -0.0010911 0)
(-0.00635454 -0.00107392 0)
(-0.00340043 -0.000898055 0)
(-0.00108639 -0.000556356 0)
(0.000196388 -9.03711e-05 0)
(0.000267833 0.000262357 0)
(-7.73522e-05 -0.000169059 0)
(-0.00161124 0.00164491 0)
(-0.00569232 0.00361712 0)
(-0.0117178 0.00503447 0)
(-0.0188908 0.00574279 0)
(-0.0263987 0.00575975 0)
(-0.0334667 0.00517126 0)
(-0.0394239 0.00409219 0)
(-0.0437408 0.00264742 0)
(-0.0460438 0.000966806 0)
(-0.0461262 -0.000813267 0)
(-0.0439584 -0.00254692 0)
(-0.0396985 -0.00407834 0)
(-0.0337005 -0.00524472 0)
(-0.0265117 -0.00588614 0)
(-0.0188534 -0.00586445 0)
(-0.011566 -0.00509443 0)
(-0.00551299 -0.00358921 0)
(-0.00149302 -0.00155906 0)
(-4.2584e-05 0.000227421 0)
(-0.000528519 0.00109169 0)
(-0.00371102 0.00573603 0)
(-0.0105881 0.0102238 0)
(-0.0199903 0.0134067 0)
(-0.0307627 0.0149452 0)
(-0.0418194 0.0148377 0)
(-0.0521164 0.0132547 0)
(-0.0607402 0.0104554 0)
(-0.0669652 0.00674151 0)
(-0.0702783 0.00243869 0)
(-0.0703963 -0.0021064 0)
(-0.0672803 -0.00652498 0)
(-0.0611487 -0.0104284 0)
(-0.0524854 -0.0134201 0)
(-0.0420346 -0.0151224 0)
(-0.0307722 -0.0152246 0)
(-0.019828 -0.0135551 0)
(-0.010363 -0.0101783 0)
(-0.00354833 -0.00555076 0)
(-0.00047682 -0.0009488 0)
(-0.000928136 0.00347966 0)
(-0.00569107 0.0122199 0)
(-0.0153008 0.0199204 0)
(-0.0279151 0.0251961 0)
(-0.0419829 0.0275951 0)
(-0.0561757 0.0271356 0)
(-0.069248 0.0241072 0)
(-0.0801211 0.0189525 0)
(-0.0879432 0.0121947 0)
(-0.0921137 0.00440482 0)
(-0.0922983 -0.00380764 0)
(-0.0884454 -0.0117957 0)
(-0.0808007 -0.0188808 0)
(-0.0699193 -0.0243746 0)
(-0.0566663 -0.0276257 0)
(-0.0421927 -0.0280999 0)
(-0.0278552 -0.0254961 0)
(-0.0150929 -0.0198905 0)
(-0.00550476 -0.011927 0)
(-0.000861553 -0.00322469 0)
(-0.00127884 0.00687735 0)
(-0.00753559 0.0209523 0)
(-0.0198037 0.0325082 0)
(-0.035533 0.0401005 0)
(-0.0527408 0.0432873 0)
(-0.0698551 0.0421898 0)
(-0.0854592 0.037275 0)
(-0.0983558 0.029211 0)
(-0.107615 0.018776 0)
(-0.112583 0.00681336 0)
(-0.112892 -0.00577984 0)
(-0.108469 -0.0180533 0)
(-0.0995577 -0.0290093 0)
(-0.0867353 -0.0376301 0)
(-0.0709326 -0.0429421 0)
(-0.0534279 -0.0441259 0)
(-0.035783 -0.0406761 0)
(-0.0197343 -0.0325905 0)
(-0.00737025 -0.0205894 0)
(-0.00120361 -0.00649777 0)
(-0.00160743 0.0112149 0)
(-0.00931756 0.0318724 0)
(-0.0242081 0.0479486 0)
(-0.0430007 0.0580679 0)
(-0.0632542 0.0619328 0)
(-0.0831492 0.0598769 0)
(-0.10112 0.0526246 0)
(-0.115887 0.0411229 0)
(-0.126482 0.0264353 0)
(-0.132232 0.00969238 0)
(-0.132744 -0.00791553 0)
(-0.127917 -0.0251301 0)
(-0.117961 -0.0406219 0)
(-0.103429 -0.0530154 0)
(-0.0852653 -0.0609619 0)
(-0.0648328 -0.0632757 0)
(-0.0438836 -0.0591381 0)
(-0.0244766 -0.0483413 0)
(-0.00925391 -0.0315556 0)
(-0.00153768 -0.0107279 0)
(-0.00193996 0.016476 0)
(-0.0111208 0.0449712 0)
(-0.0286492 0.0662288 0)
(-0.0504777 0.0790539 0)
(-0.0736819 0.0834404 0)
(-0.0961997 0.0800684 0)
(-0.116347 0.0700193 0)
(-0.132809 0.054581 0)
(-0.144625 0.0351293 0)
(-0.151135 0.013084 0)
(-0.151943 -0.0100854 0)
(-0.146909 -0.0328299 0)
(-0.136176 -0.0534955 0)
(-0.120218 -0.0703316 0)
(-0.0999287 -0.0815595 0)
(-0.0766984 -0.0855269 0)
(-0.0524381 -0.0809584 0)
(-0.0295437 -0.0672728 0)
(-0.0112832 -0.0449368 0)
(-0.0019 -0.0159506 0)
(-0.00229995 0.0226934 0)
(-0.0130246 0.0602969 0)
(-0.0332497 0.0873578 0)
(-0.0580777 0.102989 0)
(-0.0840717 0.107658 0)
(-0.10895 0.102554 0)
(-0.130963 0.0892379 0)
(-0.148829 0.069406 0)
(-0.161661 0.0447687 0)
(-0.168862 0.017019 0)
(-0.170057 -0.0121322 0)
(-0.165066 -0.0408899 0)
(-0.153925 -0.0673092 0)
(-0.136965 -0.0892668 0)
(-0.114939 -0.104505 0)
(-0.089173 -0.110789 0)
(-0.0616687 -0.106206 0)
(-0.0351472 -0.089574 0)
(-0.0135854 -0.060946 0)
(-0.00232625 -0.0222763 0)
(-0.00271158 0.0299451 0)
(-0.0151076 0.0779517 0)
(-0.0381138 0.111349 0)
(-0.0658468 0.129741 0)
(-0.0943245 0.134308 0)
(-0.121096 0.126965 0)
(-0.14444 0.109895 0)
(-0.163209 0.0852761 0)
(-0.176683 0.0551637 0)
(-0.184402 0.021486 0)
(-0.186053 -0.0138732 0)
(-0.181417 -0.0489527 0)
(-0.170391 -0.0815874 0)
(-0.153077 -0.109316 0)
(-0.129968 -0.129373 0)
(-0.102183 -0.13882 0)
(-0.0716879 -0.134879 0)
(-0.041466 -0.115463 0)
(-0.0162877 -0.0798911 0)
(-0.00285463 -0.029888 0)
(-0.00320764 0.0383574 0)
(-0.0174661 0.0980839 0)
(-0.0433407 0.138181 0)
(-0.073756 0.159036 0)
(-0.104159 0.162891 0)
(-0.132031 0.152663 0)
(-0.155824 0.131333 0)
(-0.174677 0.101634 0)
(-0.188166 0.0659539 0)
(-0.196066 0.0263885 0)
(-0.198184 -0.015111 0)
(-0.194282 -0.0565411 0)
(-0.18408 -0.0956355 0)
(-0.167365 -0.129681 0)
(-0.144214 -0.155414 0)
(-0.115337 -0.169088 0)
(-0.082445 -0.166794 0)
(-0.0486356 -0.145117 0)
(-0.0195285 -0.102155 0)
(-0.00353352 -0.0390454 0)
(-0.00384399 0.0481264 0)
(-0.0202463 0.120888 0)
(-0.0490469 0.167744 0)
(-0.081687 0.190357 0)
(-0.113054 0.192547 0)
(-0.140747 0.178605 0)
(-0.163623 0.152504 0)
(-0.18131 0.117586 0)
(-0.193848 0.0765311 0)
(-0.201362 0.0314933 0)
(-0.203858 -0.0156571 0)
(-0.201111 -0.063046 0)
(-0.192649 -0.108484 0)
(-0.177858 -0.149162 0)
(-0.156224 -0.181406 0)
(-0.12778 -0.200597 0)
(-0.0936443 -0.201416 0)
(-0.0567331 -0.178566 0)
(-0.0234798 -0.128168 0)
(-0.00443553 -0.0501025 0)
(-0.00472545 0.0595691 0)
(-0.0236951 0.146612 0)
(-0.0553839 0.199748 0)
(-0.0893781 0.222781 0)
(-0.120124 0.221882 0)
(-0.145679 0.203179 0)
(-0.165634 0.171832 0)
(-0.180375 0.131804 0)
(-0.190586 0.0859662 0)
(-0.196868 0.0363754 0)
(-0.199506 -0.0153689 0)
(-0.19834 -0.0677388 0)
(-0.192721 -0.11886 0)
(-0.181577 -0.16607 0)
(-0.163647 -0.205479 0)
(-0.137968 -0.231652 0)
(-0.104597 -0.237616 0)
(-0.0657341 -0.215518 0)
(-0.0283779 -0.158363 0)
(-0.0056821 -0.0635503 0)
(-0.0060517 0.0732265 0)
(-0.0282264 0.175558 0)
(-0.0625102 0.233564 0)
(-0.0962595 0.254738 0)
(-0.12386 0.248722 0)
(-0.144402 0.224018 0)
(-0.158676 0.1871 0)
(-0.168113 0.142456 0)
(-0.174208 0.0929655 0)
(-0.178125 0.0403781 0)
(-0.180492 -0.014197 0)
(-0.181272 -0.0698174 0)
(-0.179701 -0.125205 0)
(-0.174275 -0.178173 0)
(-0.162899 -0.224965 0)
(-0.143319 -0.259579 0)
(-0.113939 -0.273321 0)
(-0.0753941 -0.25506 0)
(-0.0345566 -0.193086 0)
(-0.00748634 -0.0801024 0)
(-0.0081922 0.0900448 0)
(-0.0344834 0.208016 0)
(-0.070414 0.267878 0)
(-0.101026 0.283599 0)
(-0.121578 0.269803 0)
(-0.133113 0.237833 0)
(-0.138169 0.195398 0)
(-0.13947 0.147228 0)
(-0.139375 0.0959062 0)
(-0.139603 0.0426187 0)
(-0.141117 -0.0122318 0)
(-0.144063 -0.0685039 0)
(-0.147676 -0.125789 0)
(-0.150175 -0.182763 0)
(-0.148725 -0.236317 0)
(-0.139647 -0.280439 0)
(-0.119097 -0.305018 0)
(-0.0849372 -0.295153 0)
(-0.0424409 -0.232373 0)
(-0.0102161 -0.100835 0)
(-0.0117676 0.111634 0)
(-0.0432604 0.243958 0)
(-0.078299 0.300029 0)
(-0.100631 0.305087 0)
(-0.108355 0.280454 0)
(-0.105736 0.240377 0)
(-0.0975356 0.193276 0)
(-0.0877779 0.143545 0)
(-0.0795086 0.0930332 0)
(-0.0747933 0.0420941 0)
(-0.0748108 -0.0097279 0)
(-0.0798983 -0.0632086 0)
(-0.0894697 -0.118986 0)
(-0.101794 -0.176952 0)
(-0.113691 -0.235279 0)
(-0.120309 -0.288876 0)
(-0.115266 -0.32719 0)
(-0.0922678 -0.331789 0)
(-0.0523162 -0.2754 0)
(-0.0144304 -0.127346 0)
(-0.0175494 0.140658 0)
(-0.0547651 0.282143 0)
(-0.0827877 0.324715 0)
(-0.088083 0.312469 0)
(-0.0751122 0.274451 0)
(-0.0525959 0.226766 0)
(-0.0274644 0.177284 0)
(-0.0045214 0.129132 0)
(0.0130913 0.0829107 0)
(0.0234322 0.0379462 0)
(0.0253908 -0.00707291 0)
(0.0185001 -0.0537567 0)
(0.00297311 -0.103749 0)
(-0.0200027 -0.158316 0)
(-0.0476906 -0.217498 0)
(-0.0749882 -0.278356 0)
(-0.093549 -0.331787 0)
(-0.092065 -0.357679 0)
(-0.063281 -0.319292 0)
(-0.0206337 -0.161973 0)
(-0.0254498 0.181711 0)
(-0.065775 0.31777 0)
(-0.0733342 0.33136 0)
(-0.0480791 0.295398 0)
(-0.00558139 0.244209 0)
(0.0412143 0.192377 0)
(0.0846478 0.145044 0)
(0.12053 0.10297 0)
(0.146695 0.0651365 0)
(0.16204 0.0298909 0)
(0.165934 -0.00467122 0)
(0.157929 -0.0406273 0)
(0.137726 -0.0802447 0)
(0.105435 -0.125915 0)
(0.0622577 -0.179724 0)
(0.0118023 -0.242018 0)
(-0.0378322 -0.307875 0)
(-0.0716807 -0.360141 0)
(-0.070056 -0.356607 0)
(-0.0279124 -0.208374 0)
(-0.029649 0.239176 0)
(-0.0608415 0.335767 0)
(-0.0219431 0.300502 0)
(0.0505404 0.240126 0)
(0.12757 0.182947 0)
(0.197004 0.135388 0)
(0.254332 0.0973975 0)
(0.298245 0.0668499 0)
(0.328819 0.0413545 0)
(0.346461 0.0187783 0)
(0.35137 -0.00279397 0)
(0.343297 -0.0252645 0)
(0.321463 -0.0507867 0)
(0.284638 -0.0820468 0)
(0.231568 -0.122444 0)
(0.162178 -0.175668 0)
(0.0798986 -0.24343 0)
(-0.00319099 -0.319135 0)
(-0.05467 -0.368611 0)
(-0.0284595 -0.267618 0)
(0.00808313 0.281861 0)
(0.019783 0.294972 0)
(0.139066 0.210972 0)
(0.264459 0.143476 0)
(0.364366 0.0971853 0)
(0.440362 0.0657768 0)
(0.49674 0.0442369 0)
(0.53687 0.0288855 0)
(0.563442 0.0171986 0)
(0.578301 0.00748468 0)
(0.582376 -0.00149403 0)
(0.575691 -0.010845 0)
(0.557305 -0.0218467 0)
(0.525131 -0.0363344 0)
(0.475774 -0.057259 0)
(0.404535 -0.0893835 0)
(0.305175 -0.139741 0)
(0.173416 -0.216386 0)
(0.0411718 -0.311655 0)
(0.0184302 -0.299995 0)
(0.299604 0.146091 0)
(0.396272 0.127503 0)
(0.55742 0.0760895 0)
(0.674487 0.0437232 0)
(0.743888 0.025572 0)
(0.787152 0.0152421 0)
(0.815484 0.00921222 0)
(0.833954 0.00550932 0)
(0.845383 0.00302712 0)
(0.851369 0.00114933 0)
(0.852664 -0.000499357 0)
(0.84938 -0.00221501 0)
(0.840998 -0.00433848 0)
(0.826139 -0.00742398 0)
(0.802077 -0.0125321 0)
(0.76362 -0.0217727 0)
(0.699108 -0.0392828 0)
(0.583952 -0.0726601 0)
(0.415827 -0.127868 0)
(0.308819 -0.149468 0)
)
;

boundaryField
{
    movingWall
    {
        type            fixedValue;
        value           uniform (1 0 0);
    }
    fixedWalls
    {
        type            noSlip;
    }
    frontAndBack
    {
        type            empty;
    }
}


// ************************************************************************* //
