/*--------------------------------*- C++ -*----------------------------------*\
| =========                 |                                                 |
| \\      /  F ield         | OpenFOAM: The Open Source CFD Toolbox           |
|  \\    /   O peration     | Version:  v2106                                 |
|   \\  /    A nd           | Website:  www.openfoam.com                      |
|    \\/     M anipulation  |                                                 |
\*---------------------------------------------------------------------------*/
FoamFile
{
    version     2.0;
    format      ascii;
    arch        "LSB;label=32;scalar=64";
    class       volScalarField;
    location    "0.4";
    object      p;
}
// * * * * * * * * * * * * * * * * * * * * * * * * * * * * * * * * * * * * * //

dimensions      [0 2 -2 0 0 0 0];

internalField   nonuniform List<scalar> 
200
(
-0.0432332
-0.0490629
-0.056201
-0.0616531
-0.0636706
-0.0614769
-0.0550125
-0.0447225
-0.0314017
-0.0160906
-0.0374575
-0.0434568
-0.0490426
-0.0527812
-0.0538377
-0.0516715
-0.0462089
-0.037765
-0.0269365
-0.014528
-0.0299043
-0.0382055
-0.0442344
-0.0476621
-0.048512
-0.0465031
-0.0416369
-0.0342118
-0.0247375
-0.0138904
-0.0231005
-0.0345436
-0.0420135
-0.0459078
-0.0469614
-0.0451246
-0.0405081
-0.0334549
-0.0244592
-0.0141447
-0.0187382
-0.0334666
-0.0426497
-0.0472263
-0.0485416
-0.0467467
-0.0420647
-0.0349049
-0.0257776
-0.0152906
-0.0180624
-0.0360898
-0.0470415
-0.0522966
-0.0537515
-0.0517393
-0.0465961
-0.0388099
-0.0289261
-0.0175605
-0.0221467
-0.0435021
-0.056174
-0.0619486
-0.063269
-0.0606531
-0.0545575
-0.0455588
-0.0342487
-0.021263
-0.0320971
-0.0568577
-0.0711143
-0.0770934
-0.0778425
-0.0740964
-0.0664517
-0.055584
-0.042134
-0.026755
-0.0492066
-0.0775057
-0.0931091
-0.0987875
-0.0983289
-0.0927533
-0.0828321
-0.0693518
-0.0529956
-0.0344155
-0.075096
-0.107115
-0.123656
-0.128246
-0.125659
-0.117317
-0.104219
-0.0872748
-0.0671897
-0.044575
-0.111906
-0.147842
-0.164583
-0.166828
-0.160754
-0.148365
-0.130956
-0.109563
-0.0848749
-0.0573934
-0.16264
-0.202595
-0.218153
-0.215995
-0.204386
-0.186167
-0.162997
-0.136015
-0.105815
-0.0726852
-0.231865
-0.275479
-0.287176
-0.277186
-0.256932
-0.230392
-0.19961
-0.165739
-0.129135
-0.0897095
-0.327211
-0.372542
-0.375069
-0.351517
-0.317946
-0.279677
-0.239002
-0.196847
-0.153077
-0.106982
-0.462555
-0.502908
-0.485587
-0.439029
-0.385366
-0.330977
-0.277853
-0.226167
-0.174846
-0.122222
-0.663768
-0.67998
-0.621914
-0.53743
-0.454478
-0.378895
-0.311017
-0.249214
-0.190773
-0.132619
-0.97916
-0.921751
-0.784978
-0.641186
-0.51763
-0.415896
-0.332105
-0.260999
-0.19719
-0.1357
-1.51966
-1.24987
-0.96374
-0.734625
-0.560542
-0.430781
-0.333298
-0.256574
-0.19136
-0.130452
-2.58289
-1.67378
-1.08768
-0.754196
-0.538988
-0.395331
-0.297768
-0.22682
-0.169406
-0.116832
-4.4099
-2.08787
-1.01678
-0.606419
-0.401085
-0.283385
-0.213357
-0.167021
-0.130718
-0.096747
)
;

boundaryField
{
    movingWall
    {
        type            zeroGradient;
    }
    fixedWalls
    {
        type            zeroGradient;
    }
    frontAndBack
    {
        type            empty;
    }
    procBoundary1to0
    {
        type            processor;
        value           nonuniform List<scalar> 
20
(
2.85411e-06
-0.00149032
-0.00247443
-0.00324782
-0.00415468
-0.0054257
-0.00732961
-0.0101864
-0.0143376
-0.0200926
-0.0276323
-0.0368644
-0.0472517
-0.0576748
-0.0664505
-0.0716621
-0.0719531
-0.0678134
-0.062505
-0.0598905
)
;
    }
}


// ************************************************************************* //
