/*--------------------------------*- C++ -*----------------------------------*\
| =========                 |                                                 |
| \\      /  F ield         | OpenFOAM: The Open Source CFD Toolbox           |
|  \\    /   O peration     | Version:  v2106                                 |
|   \\  /    A nd           | Website:  www.openfoam.com                      |
|    \\/     M anipulation  |                                                 |
\*---------------------------------------------------------------------------*/
FoamFile
{
    version     2.0;
    format      ascii;
    arch        "LSB;label=32;scalar=64";
    class       surfaceScalarField;
    location    "0.4";
    object      phi;
}
// * * * * * * * * * * * * * * * * * * * * * * * * * * * * * * * * * * * * * //

dimensions      [0 3 -1 0 0 0 0];

oriented        oriented;

internalField   nonuniform List<scalar> 
370
(
1.42499e-08
-1.42499e-08
-2.22024e-08
3.64523e-08
-1.14267e-07
9.20647e-08
-2.45496e-07
1.31229e-07
-3.96104e-07
1.50608e-07
-5.47375e-07
1.51271e-07
-6.83201e-07
1.35827e-07
-7.90674e-07
1.07473e-07
-8.60217e-07
6.95431e-08
2.54287e-08
-3.42073e-08
1.99572e-08
-1.8037e-07
1.82615e-07
-4.33995e-07
3.45689e-07
-7.64451e-07
4.61685e-07
-1.13224e-06
5.18399e-07
-1.49729e-06
5.16315e-07
-1.82339e-06
4.6193e-07
-2.08059e-06
3.64677e-07
-2.24634e-06
2.35285e-07
8.5194e-08
-9.2227e-08
1.12184e-07
-3.57001e-07
4.47389e-07
-7.64574e-07
7.53261e-07
-1.26852e-06
9.65627e-07
-1.81474e-06
1.06462e-06
-2.3491e-06
1.05068e-06
-2.8225e-06
9.3533e-07
-3.19402e-06
7.36194e-07
-3.43269e-06
4.73957e-07
1.71099e-07
-1.45213e-07
2.57396e-07
-5.2547e-07
8.27646e-07
-1.08165e-06
1.30944e-06
-1.74754e-06
1.63152e-06
-2.45438e-06
1.77146e-06
-3.13643e-06
1.73273e-06
-3.73536e-06
1.53426e-06
-4.20299e-06
1.20382e-06
-4.503e-06
7.73974e-07
2.80109e-07
-1.93612e-07
4.51008e-07
-6.8501e-07
1.31904e-06
-1.38564e-06
2.01007e-06
-2.20727e-06
2.45315e-06
-3.06551e-06
2.6297e-06
-3.88383e-06
2.55105e-06
-4.59657e-06
2.24699e-06
-5.15065e-06
1.75791e-06
-5.50652e-06
1.12984e-06
4.12186e-07
-2.39944e-07
6.90952e-07
-8.40359e-07
1.91946e-06
-1.68331e-06
2.85302e-06
-2.65709e-06
3.42693e-06
-3.66088e-06
3.63349e-06
-4.60782e-06
3.498e-06
-5.42641e-06
3.06559e-06
-6.06064e-06
2.39213e-06
-6.46943e-06
1.53863e-06
5.68883e-07
-2.86748e-07
9.777e-07
-9.97096e-07
2.62981e-06
-1.9821e-06
3.83803e-06
-3.10498e-06
4.5498e-06
-4.248e-06
4.77651e-06
-5.31487e-06
4.56487e-06
-6.23018e-06
3.98089e-06
-6.93724e-06
3.09919e-06
-7.39556e-06
1.99695e-06
7.5202e-07
-3.36334e-07
1.31403e-06
-1.16038e-06
3.45385e-06
-2.28804e-06
4.96568e-06
-3.55502e-06
5.81679e-06
-4.82666e-06
6.04814e-06
-5.99911e-06
5.73732e-06
-6.99609e-06
4.97787e-06
-7.76358e-06
3.86669e-06
-8.26455e-06
2.49792e-06
9.6215e-07
-3.9096e-07
1.70499e-06
-1.33489e-06
4.39779e-06
-2.60499e-06
6.23578e-06
-4.00596e-06
7.21777e-06
-5.38684e-06
7.42902e-06
-6.63978e-06
6.99027e-06
-7.69247e-06
6.03055e-06
-8.49851e-06
4.67272e-06
-9.02846e-06
3.02787e-06
1.19666e-06
-4.53454e-07
2.15845e-06
-1.52569e-06
5.47002e-06
-2.93489e-06
7.64498e-06
-4.45013e-06
8.733e-06
-5.90634e-06
8.88523e-06
-7.19784e-06
8.28176e-06
-8.26369e-06
7.09641e-06
-9.0721e-06
5.48114e-06
-9.60691e-06
3.56268e-06
1.44738e-06
-5.28334e-07
2.68678e-06
-1.73966e-06
6.68134e-06
-3.27797e-06
9.18329e-06
-4.87162e-06
1.03267e-05
-6.347e-06
1.03606e-05
-7.61081e-06
9.54557e-06
-8.62434e-06
8.10994e-06
-9.37967e-06
6.23647e-06
-9.88098e-06
4.06399e-06
1.69793e-06
-6.23662e-07
3.31044e-06
-1.98737e-06
8.04505e-06
-3.63189e-06
1.08278e-05
-5.2419e-06
1.19367e-05
-6.64754e-06
1.17663e-05
-7.78444e-06
1.06825e-05
-8.65098e-06
8.97647e-06
-9.27427e-06
6.85976e-06
-9.6865e-06
4.47622e-06
1.92121e-06
-7.54071e-07
4.06452e-06
-2.28433e-06
9.57531e-06
-3.98698e-06
1.25305e-05
-5.50906e-06
1.34587e-05
-6.70956e-06
1.29668e-05
-7.57851e-06
1.15514e-05
-8.17e-06
9.56797e-06
-8.55757e-06
7.24733e-06
-8.80767e-06
4.72632e-06
2.07853e-06
-9.452e-07
5.00972e-06
-2.64847e-06
1.12786e-05
-4.31096e-06
1.41929e-05
-5.57325e-06
1.4721e-05
-6.37062e-06
1.37641e-05
-6.78319e-06
1.1964e-05
-6.9404e-06
9.72517e-06
-6.96961e-06
7.27655e-06
-6.97265e-06
4.72936e-06
2.12225e-06
-1.23731e-06
6.24702e-06
-3.08327e-06
1.31245e-05
-4.50766e-06
1.56173e-05
-5.23442e-06
1.54478e-05
-5.35513e-06
1.38848e-05
-5.08172e-06
1.16906e-05
-4.63077e-06
9.27421e-06
-4.17911e-06
6.8249e-06
-3.8542e-06
4.40444e-06
2.00491e-06
-1.6738e-06
7.92082e-06
-3.51335e-06
1.49641e-05
-4.31526e-06
1.64193e-05
-4.08881e-06
1.52213e-05
-3.19296e-06
1.2989e-05
-1.99863e-06
1.04963e-05
-7.95013e-07
8.0706e-06
2.19483e-07
5.8104e-06
9.18388e-07
3.70554e-06
1.69754e-06
-2.23068e-06
1.01515e-05
-3.59028e-06
1.63237e-05
-3.07775e-06
1.59067e-05
-1.34383e-06
1.34874e-05
8.97107e-07
1.07481e-05
3.15506e-06
8.2383e-06
5.13823e-06
6.08743e-06
6.68882e-06
4.25981e-06
7.72597e-06
2.66839e-06
1.21682e-06
-2.57381e-06
1.27253e-05
-2.18345e-06
1.59333e-05
7.18089e-07
1.30052e-05
4.4696e-06
9.73589e-06
8.13334e-06
7.08432e-06
1.13016e-05
5.07e-06
1.38292e-05
3.5599e-06
1.56882e-05
2.4008e-06
1.68918e-05
1.46481e-06
6.53605e-07
-7.85013e-07
1.35103e-05
4.0808e-06
1.10675e-05
1.02976e-05
6.78843e-06
1.57936e-05
4.2398e-06
2.01581e-05
2.71991e-06
2.34581e-05
1.76995e-06
2.58609e-05
1.15714e-06
2.75216e-05
7.40056e-07
2.85541e-05
4.32295e-07
1.81221e-07
1.35103e-05
2.45778e-05
3.13663e-05
3.56061e-05
3.8326e-05
4.00959e-05
4.12531e-05
4.19931e-05
4.24254e-05
)
;

boundaryField
{
    movingWall
    {
        type            calculated;
        value           uniform 0;
    }
    fixedWalls
    {
        type            calculated;
        value           uniform 0;
    }
    frontAndBack
    {
        type            empty;
        value           nonuniform List<scalar> 0();
    }
    procBoundary1to0
    {
        type            processor;
        value           nonuniform List<scalar> 
20
(
-8.85646e-07
-2.3061e-06
-3.5186e-06
-4.61201e-06
-5.6386e-06
-6.62613e-06
-7.5787e-06
-8.47468e-06
-9.26296e-06
-9.85763e-06
-1.01315e-05
-9.90978e-06
-8.965e-06
-7.01637e-06
-3.73686e-06
1.22576e-06
8.20669e-06
1.7455e-05
2.90265e-05
4.26067e-05
)
;
    }
}


// ************************************************************************* //
