/*--------------------------------*- C++ -*----------------------------------*\
| =========                 |                                                 |
| \\      /  F ield         | OpenFOAM: The Open Source CFD Toolbox           |
|  \\    /   O peration     | Version:  v2106                                 |
|   \\  /    A nd           | Website:  www.openfoam.com                      |
|    \\/     M anipulation  |                                                 |
\*---------------------------------------------------------------------------*/
FoamFile
{
    version     2.0;
    format      ascii;
    arch        "LSB;label=32;scalar=64";
    class       volVectorField;
    location    "0.4";
    object      U;
}
// * * * * * * * * * * * * * * * * * * * * * * * * * * * * * * * * * * * * * //

dimensions      [0 1 -1 0 0 0 0];

internalField   nonuniform List<vector> 
200
(
(0.000253588 -0.000250252 0)
(0.00014149 0.000111537 0)
(-0.00117686 0.000564654 0)
(-0.0034811 0.000885009 0)
(-0.00637754 0.00104572 0)
(-0.0094696 0.00106175 0)
(-0.0124031 0.000957854 0)
(-0.0148852 0.000760439 0)
(-0.0166898 0.00049463 0)
(-0.0176585 0.000184501 0)
(-7.73575e-05 -0.000169092 0)
(-0.00161139 0.00164506 0)
(-0.00569289 0.00361749 0)
(-0.0117191 0.005035 0)
(-0.0188928 0.0057434 0)
(-0.0264015 0.00576036 0)
(-0.0334702 0.00517181 0)
(-0.0394281 0.00409261 0)
(-0.0437454 0.00264767 0)
(-0.0460486 0.000966838 0)
(-0.000528577 0.00109179 0)
(-0.00371141 0.00573661 0)
(-0.0105892 0.0102249 0)
(-0.0199923 0.0134082 0)
(-0.0307659 0.0149468 0)
(-0.0418237 0.0148393 0)
(-0.0521218 0.0132561 0)
(-0.0607465 0.0104565 0)
(-0.066972 0.00674215 0)
(-0.0702854 0.00243884 0)
(-0.000928237 0.00348001 0)
(-0.00569164 0.0122211 0)
(-0.0153023 0.0199224 0)
(-0.0279178 0.0251987 0)
(-0.041987 0.0275979 0)
(-0.0561812 0.0271384 0)
(-0.0692547 0.0241097 0)
(-0.0801288 0.0189544 0)
(-0.0879517 0.0121959 0)
(-0.0921224 0.0044051 0)
(-0.00127897 0.00687805 0)
(-0.00753628 0.0209544 0)
(-0.0198055 0.0325114 0)
(-0.0355361 0.0401045 0)
(-0.0527453 0.0432916 0)
(-0.0698611 0.0421941 0)
(-0.0854666 0.0372786 0)
(-0.0983642 0.0292139 0)
(-0.107624 0.0187777 0)
(-0.112593 0.00681378 0)
(-0.00160757 0.0112159 0)
(-0.00931828 0.0318754 0)
(-0.0242099 0.0479531 0)
(-0.0430038 0.0580734 0)
(-0.0632588 0.0619386 0)
(-0.0831553 0.0598825 0)
(-0.101127 0.0526295 0)
(-0.115895 0.0411267 0)
(-0.126492 0.0264375 0)
(-0.132241 0.00969293 0)
(-0.00194009 0.0164774 0)
(-0.0111214 0.044975 0)
(-0.0286508 0.0662345 0)
(-0.0504806 0.0790607 0)
(-0.0736861 0.0834476 0)
(-0.0962052 0.0800754 0)
(-0.116354 0.0700254 0)
(-0.132817 0.0545856 0)
(-0.144633 0.0351321 0)
(-0.151144 0.0130847 0)
(-0.00230005 0.0226952 0)
(-0.0130251 0.0603015 0)
(-0.033251 0.0873645 0)
(-0.05808 0.102997 0)
(-0.084075 0.107666 0)
(-0.108954 0.102562 0)
(-0.130968 0.0892449 0)
(-0.148835 0.0694113 0)
(-0.161667 0.0447719 0)
(-0.168868 0.0170198 0)
(-0.00271164 0.0299471 0)
(-0.015108 0.0779569 0)
(-0.0381147 0.111356 0)
(-0.0658482 0.12975 0)
(-0.0943266 0.134318 0)
(-0.121099 0.126974 0)
(-0.144443 0.109902 0)
(-0.163213 0.0852819 0)
(-0.176687 0.0551672 0)
(-0.184406 0.0214869 0)
(-0.00320765 0.0383596 0)
(-0.0174661 0.0980893 0)
(-0.0433409 0.138189 0)
(-0.0737564 0.159046 0)
(-0.10416 0.162901 0)
(-0.132032 0.152673 0)
(-0.155825 0.131341 0)
(-0.174678 0.10164 0)
(-0.188168 0.0659576 0)
(-0.196068 0.0263895 0)
(-0.00384395 0.0481285 0)
(-0.0202461 0.120893 0)
(-0.0490465 0.167752 0)
(-0.0816863 0.190366 0)
(-0.113053 0.192557 0)
(-0.140746 0.178615 0)
(-0.163622 0.152512 0)
(-0.181309 0.117593 0)
(-0.193846 0.0765349 0)
(-0.201361 0.0314943 0)
(-0.00472536 0.059571 0)
(-0.0236947 0.146617 0)
(-0.0553829 0.199756 0)
(-0.0893764 0.22279 0)
(-0.120122 0.221891 0)
(-0.145676 0.203188 0)
(-0.165631 0.17184 0)
(-0.180371 0.13181 0)
(-0.190581 0.0859699 0)
(-0.196863 0.0363765 0)
(-0.00605158 0.0732281 0)
(-0.0282258 0.175563 0)
(-0.0625087 0.23357 0)
(-0.096257 0.254746 0)
(-0.123857 0.248731 0)
(-0.144398 0.224026 0)
(-0.15867 0.187107 0)
(-0.168107 0.142462 0)
(-0.174201 0.0929689 0)
(-0.178119 0.0403792 0)
(-0.00819206 0.0900461 0)
(-0.0344827 0.20802 0)
(-0.0704122 0.267883 0)
(-0.101023 0.283606 0)
(-0.121574 0.269811 0)
(-0.133107 0.23784 0)
(-0.138162 0.195404 0)
(-0.139462 0.147233 0)
(-0.139367 0.0959092 0)
(-0.139595 0.0426196 0)
(-0.0117675 0.111635 0)
(-0.0432597 0.243961 0)
(-0.0782971 0.300034 0)
(-0.100627 0.305092 0)
(-0.108351 0.28046 0)
(-0.10573 0.240382 0)
(-0.0975282 0.193281 0)
(-0.0877695 0.143549 0)
(-0.0794994 0.0930358 0)
(-0.0747837 0.042095 0)
(-0.0175493 0.140659 0)
(-0.0547645 0.282145 0)
(-0.082786 0.324718 0)
(-0.0880799 0.312473 0)
(-0.0751077 0.274456 0)
(-0.0525899 0.22677 0)
(-0.0274571 0.177288 0)
(-0.00451292 0.129135 0)
(0.0131006 0.0829127 0)
(0.0234418 0.0379469 0)
(-0.0254497 0.181711 0)
(-0.0657745 0.317771 0)
(-0.0733328 0.331362 0)
(-0.0480765 0.295401 0)
(-0.0055775 0.244212 0)
(0.0412196 0.19238 0)
(0.0846544 0.145047 0)
(0.120538 0.102972 0)
(0.146704 0.0651379 0)
(0.162049 0.0298914 0)
(-0.029649 0.239176 0)
(-0.0608413 0.335767 0)
(-0.0219423 0.300503 0)
(0.0505422 0.240127 0)
(0.127573 0.182949 0)
(0.197008 0.135389 0)
(0.254337 0.097399 0)
(0.298252 0.0668511 0)
(0.328826 0.0413553 0)
(0.346468 0.0187786 0)
(0.0080831 0.281861 0)
(0.0197831 0.294972 0)
(0.139066 0.210973 0)
(0.26446 0.143477 0)
(0.364368 0.097186 0)
(0.440364 0.0657775 0)
(0.496743 0.0442375 0)
(0.536874 0.028886 0)
(0.563447 0.0171989 0)
(0.578306 0.00748477 0)
(0.299604 0.146091 0)
(0.396272 0.127503 0)
(0.55742 0.0760895 0)
(0.674487 0.0437232 0)
(0.743888 0.0255721 0)
(0.787153 0.0152422 0)
(0.815485 0.00921233 0)
(0.833955 0.00550941 0)
(0.845385 0.00302717 0)
(0.851371 0.00114934 0)
)
;

boundaryField
{
    movingWall
    {
        type            fixedValue;
        value           uniform (1 0 0);
    }
    fixedWalls
    {
        type            noSlip;
    }
    frontAndBack
    {
        type            empty;
    }
    procBoundary1to0
    {
        type            processor;
        value           nonuniform List<vector> 
20
(
(-0.0177025 -0.000145408 0)
(-0.046131 -0.000813472 0)
(-0.0704034 -0.00210677 0)
(-0.092307 -0.00380824 0)
(-0.112901 -0.00578073 0)
(-0.132753 -0.0079167 0)
(-0.151951 -0.0100869 0)
(-0.170064 -0.0121339 0)
(-0.186057 -0.013875 0)
(-0.198186 -0.0151128 0)
(-0.203857 -0.0156589 0)
(-0.199502 -0.0153705 0)
(-0.180485 -0.0141984 0)
(-0.141109 -0.0122329 0)
(-0.0748014 -0.00972875 0)
(0.0254004 -0.0070735 0)
(0.165943 -0.0046716 0)
(0.351377 -0.00279419 0)
(0.582381 -0.00149413 0)
(0.852666 -0.000499387 0)
)
;
    }
}


// ************************************************************************* //
