/*--------------------------------*- C++ -*----------------------------------*\
| =========                 |                                                 |
| \\      /  F ield         | OpenFOAM: The Open Source CFD Toolbox           |
|  \\    /   O peration     | Version:  v2106                                 |
|   \\  /    A nd           | Website:  www.openfoam.com                      |
|    \\/     M anipulation  |                                                 |
\*---------------------------------------------------------------------------*/
FoamFile
{
    version     2.0;
    format      ascii;
    arch        "LSB;label=32;scalar=64";
    class       volScalarField;
    location    "0.2";
    object      p;
}
// * * * * * * * * * * * * * * * * * * * * * * * * * * * * * * * * * * * * * //

dimensions      [0 2 -2 0 0 0 0];

internalField   nonuniform List<scalar> 
200
(
-0.0432442
-0.0490713
-0.0562057
-0.0616543
-0.0636692
-0.061474
-0.0550092
-0.04472
-0.0314008
-0.0160914
-0.0374712
-0.0434677
-0.0490505
-0.0527863
-0.0538406
-0.0516729
-0.0462095
-0.0377655
-0.0269375
-0.0145298
-0.0299222
-0.0382194
-0.044245
-0.0476702
-0.0485179
-0.0465073
-0.0416399
-0.0342142
-0.0247397
-0.0138928
-0.0231223
-0.0345601
-0.0420262
-0.0459179
-0.0469691
-0.0451304
-0.0405124
-0.0334581
-0.0244618
-0.014147
-0.0187624
-0.0334846
-0.0426636
-0.0472373
-0.0485501
-0.0467531
-0.0420693
-0.0349081
-0.0257798
-0.0152923
-0.0180867
-0.0361075
-0.0470551
-0.0523073
-0.0537596
-0.0517452
-0.0466
-0.0388123
-0.0289272
-0.0175608
-0.0221685
-0.0435178
-0.0561858
-0.0619578
-0.0632757
-0.0606574
-0.0545598
-0.0455594
-0.0342479
-0.0212613
-0.0321139
-0.0568696
-0.0711231
-0.0770998
-0.0778467
-0.0740983
-0.0664516
-0.0555822
-0.0421307
-0.0267507
-0.0492164
-0.0775123
-0.0931136
-0.0987902
-0.0983297
-0.0927522
-0.0828291
-0.0693471
-0.0529895
-0.0344084
-0.0750975
-0.107115
-0.123655
-0.128244
-0.125656
-0.117312
-0.104213
-0.0872673
-0.0671807
-0.0445652
-0.111898
-0.147836
-0.164577
-0.166823
-0.160747
-0.148357
-0.130948
-0.109553
-0.0848635
-0.0573813
-0.162625
-0.202583
-0.218143
-0.215986
-0.204377
-0.186157
-0.162986
-0.136003
-0.105802
-0.0726714
-0.231844
-0.275463
-0.287163
-0.277174
-0.256921
-0.230381
-0.199599
-0.165726
-0.129122
-0.089695
-0.327186
-0.372523
-0.375054
-0.351505
-0.317935
-0.279667
-0.238991
-0.196835
-0.153064
-0.106968
-0.462529
-0.502889
-0.485573
-0.439018
-0.385357
-0.330968
-0.277844
-0.226156
-0.174834
-0.122209
-0.663745
-0.679964
-0.621902
-0.537422
-0.454472
-0.37889
-0.311011
-0.249206
-0.190763
-0.132609
-0.979142
-0.921739
-0.784971
-0.641181
-0.517628
-0.415895
-0.332102
-0.260994
-0.197183
-0.135692
-1.51965
-1.24986
-0.963737
-0.734625
-0.560544
-0.430783
-0.333299
-0.256572
-0.191356
-0.130445
-2.58288
-1.67378
-1.08768
-0.7542
-0.538994
-0.395337
-0.297772
-0.226822
-0.169404
-0.116827
-4.4099
-2.08787
-1.01678
-0.606427
-0.401095
-0.283395
-0.213366
-0.167026
-0.13072
-0.0967442
)
;

boundaryField
{
    movingWall
    {
        type            zeroGradient;
    }
    fixedWalls
    {
        type            zeroGradient;
    }
    frontAndBack
    {
        type            empty;
    }
    procBoundary1to0
    {
        type            processor;
        value           nonuniform List<scalar> 
20
(
5.90451e-07
-0.00149328
-0.00247731
-0.00325016
-0.00415602
-0.0054255
-0.00732734
-0.0101816
-0.0143301
-0.0200825
-0.0276199
-0.0368506
-0.0472374
-0.057661
-0.066438
-0.0716514
-0.0719443
-0.0678061
-0.0624984
-0.059884
)
;
    }
}


// ************************************************************************* //
