/*--------------------------------*- C++ -*----------------------------------*\
| =========                 |                                                 |
| \\      /  F ield         | OpenFOAM: The Open Source CFD Toolbox           |
|  \\    /   O peration     | Version:  v2106                                 |
|   \\  /    A nd           | Website:  www.openfoam.com                      |
|    \\/     M anipulation  |                                                 |
\*---------------------------------------------------------------------------*/
FoamFile
{
    version     2.0;
    format      ascii;
    arch        "LSB;label=32;scalar=64";
    class       surfaceScalarField;
    location    "0.2";
    object      phi;
}
// * * * * * * * * * * * * * * * * * * * * * * * * * * * * * * * * * * * * * //

dimensions      [0 3 -1 0 0 0 0];

oriented        oriented;

internalField   nonuniform List<scalar> 
370
(
1.42402e-08
-1.42397e-08
-2.22019e-08
3.64418e-08
-1.14232e-07
9.20304e-08
-2.4541e-07
1.31177e-07
-3.95959e-07
1.50548e-07
-5.4717e-07
1.51211e-07
-6.82943e-07
1.35773e-07
-7.90375e-07
1.07432e-07
-8.59894e-07
6.95189e-08
2.54241e-08
-3.41945e-08
1.99546e-08
-1.80296e-07
1.82544e-07
-4.33812e-07
3.45547e-07
-7.64128e-07
4.61493e-07
-1.13176e-06
5.18182e-07
-1.49665e-06
5.161e-07
-1.82262e-06
4.61739e-07
-2.07972e-06
3.64531e-07
-2.2454e-06
2.35196e-07
8.51712e-08
-9.21821e-08
1.12137e-07
-3.56835e-07
4.47196e-07
-7.64225e-07
7.52938e-07
-1.26795e-06
9.65214e-07
-1.81393e-06
1.06417e-06
-2.34807e-06
1.05023e-06
-2.82126e-06
9.34937e-07
-3.19263e-06
7.35893e-07
-3.43121e-06
4.73775e-07
1.71051e-07
-1.4514e-07
2.57277e-07
-5.25225e-07
8.2728e-07
-1.08116e-06
1.30888e-06
-1.74677e-06
1.63082e-06
-2.45331e-06
1.77071e-06
-3.13508e-06
1.732e-06
-3.73376e-06
1.53362e-06
-4.2012e-06
1.20333e-06
-4.50111e-06
7.7368e-07
2.80033e-07
-1.93523e-07
4.508e-07
-6.84715e-07
1.31847e-06
-1.38507e-06
2.00923e-06
-2.20638e-06
2.45213e-06
-3.06429e-06
2.62861e-06
-3.8823e-06
2.55001e-06
-4.59477e-06
2.24609e-06
-5.14865e-06
1.75722e-06
-5.5044e-06
1.12943e-06
4.1208e-07
-2.39848e-07
6.90648e-07
-8.40049e-07
1.91867e-06
-1.68271e-06
2.85189e-06
-2.65617e-06
3.42559e-06
-3.65963e-06
3.63208e-06
-4.60626e-06
3.49665e-06
-5.42459e-06
3.06442e-06
-6.05862e-06
2.39124e-06
-6.46729e-06
1.5381e-06
5.68748e-07
-2.86659e-07
9.77307e-07
-9.96809e-07
2.62882e-06
-1.98155e-06
3.83663e-06
-3.10413e-06
4.54817e-06
-4.24686e-06
4.7748e-06
-5.31345e-06
4.56324e-06
-6.22852e-06
3.97949e-06
-6.93541e-06
3.09813e-06
-7.39362e-06
1.99632e-06
7.51858e-07
-3.36262e-07
1.31357e-06
-1.16015e-06
3.45271e-06
-2.2876e-06
4.96408e-06
-3.55435e-06
5.81492e-06
-4.82575e-06
6.0462e-06
-5.99798e-06
5.73548e-06
-6.99476e-06
4.97627e-06
-7.76211e-06
3.86548e-06
-8.26299e-06
2.4972e-06
9.61963e-07
-3.90915e-07
1.70448e-06
-1.33475e-06
4.39654e-06
-2.60471e-06
6.23404e-06
-4.00554e-06
7.21575e-06
-5.38626e-06
7.42692e-06
-6.63906e-06
6.98827e-06
-7.69162e-06
6.02884e-06
-8.49756e-06
4.67142e-06
-9.02745e-06
3.02709e-06
1.19645e-06
-4.53442e-07
2.15793e-06
-1.52564e-06
5.46874e-06
-2.93481e-06
7.6432e-06
-4.44999e-06
8.73094e-06
-5.90616e-06
8.88308e-06
-7.1976e-06
8.27971e-06
-8.2634e-06
7.09464e-06
-9.07177e-06
5.47979e-06
-9.60654e-06
3.56186e-06
1.44715e-06
-5.28357e-07
2.68628e-06
-1.73972e-06
6.68011e-06
-3.27809e-06
9.18157e-06
-4.8718e-06
1.03246e-05
-6.34723e-06
1.03585e-05
-7.61108e-06
9.54357e-06
-8.62464e-06
8.1082e-06
-9.37999e-06
6.23513e-06
-9.88129e-06
4.06317e-06
1.69768e-06
-6.23718e-07
3.31e-06
-1.98755e-06
8.04394e-06
-3.63221e-06
1.08262e-05
-5.24238e-06
1.19348e-05
-6.64817e-06
1.17643e-05
-7.7852e-06
1.06806e-05
-8.65184e-06
8.97484e-06
-9.2752e-06
6.85849e-06
-9.68747e-06
4.47543e-06
1.92096e-06
-7.54153e-07
4.06415e-06
-2.28459e-06
9.57438e-06
-3.98746e-06
1.25291e-05
-5.50978e-06
1.34571e-05
-6.71052e-06
1.2965e-05
-7.57967e-06
1.15498e-05
-8.17134e-06
9.5665e-06
-8.55904e-06
7.24619e-06
-8.8092e-06
4.7256e-06
2.07829e-06
-9.45298e-07
5.00945e-06
-2.64878e-06
1.12779e-05
-4.31154e-06
1.41919e-05
-5.57413e-06
1.47197e-05
-6.37179e-06
1.37627e-05
-6.78464e-06
1.19626e-05
-6.94207e-06
9.72393e-06
-6.97146e-06
7.27558e-06
-6.97459e-06
4.72873e-06
2.12202e-06
-1.23741e-06
6.24686e-06
-3.08359e-06
1.3124e-05
-4.50828e-06
1.56166e-05
-5.23536e-06
1.54468e-05
-5.3564e-06
1.38837e-05
-5.08329e-06
1.16895e-05
-4.6326e-06
9.27324e-06
-4.18114e-06
6.82412e-06
-3.85635e-06
4.40394e-06
2.00472e-06
-1.67389e-06
7.92075e-06
-3.51364e-06
1.49638e-05
-4.31583e-06
1.64187e-05
-4.08969e-06
1.52207e-05
-3.19417e-06
1.29882e-05
-2.00015e-06
1.04955e-05
-7.96809e-07
8.06989e-06
2.17473e-07
5.80984e-06
9.16244e-07
3.70517e-06
1.69739e-06
-2.23075e-06
1.01515e-05
-3.5905e-06
1.63236e-05
-3.0782e-06
1.59064e-05
-1.34455e-06
1.3487e-05
8.96084e-07
1.07476e-05
3.15375e-06
8.23782e-06
5.13665e-06
6.08699e-06
6.68703e-06
4.25946e-06
7.72405e-06
2.66816e-06
1.21672e-06
-2.57384e-06
1.27253e-05
-2.18358e-06
1.59333e-05
7.17798e-07
1.30051e-05
4.4691e-06
9.73571e-06
8.13259e-06
7.08409e-06
1.13006e-05
5.06976e-06
1.3828e-05
3.55968e-06
1.56868e-05
2.40062e-06
1.68903e-05
1.46469e-06
6.53562e-07
-7.85011e-07
1.35103e-05
4.08076e-06
1.10675e-05
1.02974e-05
6.7884e-06
1.57934e-05
4.23975e-06
2.01576e-05
2.71985e-06
2.34575e-05
1.76988e-06
2.58601e-05
1.15708e-06
2.75207e-05
7.40007e-07
2.85532e-05
4.32265e-07
1.81212e-07
1.35103e-05
2.45779e-05
3.13663e-05
3.5606e-05
3.83259e-05
4.00957e-05
4.12528e-05
4.19928e-05
4.24251e-05
)
;

boundaryField
{
    movingWall
    {
        type            calculated;
        value           uniform 0;
    }
    fixedWalls
    {
        type            calculated;
        value           uniform 0;
    }
    frontAndBack
    {
        type            empty;
        value           nonuniform List<scalar> 0();
    }
    procBoundary1to0
    {
        type            processor;
        value           nonuniform List<scalar> 
20
(
-8.85318e-07
-2.30514e-06
-3.51708e-06
-4.61009e-06
-5.63645e-06
-6.62396e-06
-7.57673e-06
-8.4731e-06
-9.26193e-06
-9.85725e-06
-1.01318e-05
-9.91074e-06
-8.96653e-06
-7.01833e-06
-3.73904e-06
1.22357e-06
8.20472e-06
1.74534e-05
2.90255e-05
4.26063e-05
)
;
    }
}


// ************************************************************************* //
