/*--------------------------------*- C++ -*----------------------------------*\
| =========                 |                                                 |
| \\      /  F ield         | OpenFOAM: The Open Source CFD Toolbox           |
|  \\    /   O peration     | Version:  v2106                                 |
|   \\  /    A nd           | Website:  www.openfoam.com                      |
|    \\/     M anipulation  |                                                 |
\*---------------------------------------------------------------------------*/
FoamFile
{
    version     2.0;
    format      ascii;
    arch        "LSB;label=32;scalar=64";
    class       volVectorField;
    location    "0.2";
    object      U;
}
// * * * * * * * * * * * * * * * * * * * * * * * * * * * * * * * * * * * * * //

dimensions      [0 1 -1 0 0 0 0];

internalField   nonuniform List<vector> 
200
(
(0.000253439 -0.000250094 0)
(0.000141302 0.000111564 0)
(-0.00117659 0.00056449 0)
(-0.00347994 0.000884708 0)
(-0.00637524 0.00104535 0)
(-0.00946608 0.00106137 0)
(-0.0123985 0.000957509 0)
(-0.0148796 0.000760171 0)
(-0.0166835 0.000494473 0)
(-0.0176519 0.000184471 0)
(-7.73492e-05 -0.000168896 0)
(-0.00161076 0.00164452 0)
(-0.00569052 0.0036161 0)
(-0.0117141 0.00503299 0)
(-0.0188848 0.00574109 0)
(-0.0263903 0.00575804 0)
(-0.033456 0.00516974 0)
(-0.0394114 0.00409101 0)
(-0.043727 0.0026467 0)
(-0.0460294 0.000966601 0)
(-0.000528302 0.00109141 0)
(-0.00370964 0.00573424 0)
(-0.0105843 0.0102206 0)
(-0.0199833 0.0134025 0)
(-0.0307521 0.0149405 0)
(-0.0418052 0.014833 0)
(-0.0520988 0.0132506 0)
(-0.0607199 0.0104522 0)
(-0.0669429 0.00673957 0)
(-0.0702551 0.00243816 0)
(-0.000927732 0.00347845 0)
(-0.00568889 0.0122158 0)
(-0.0152953 0.0199138 0)
(-0.0279054 0.0251878 0)
(-0.0419686 0.0275861 0)
(-0.0561569 0.0271268 0)
(-0.069225 0.0240996 0)
(-0.0800946 0.0189467 0)
(-0.0879144 0.0121912 0)
(-0.0920838 0.00440388 0)
(-0.00127831 0.00687482 0)
(-0.0075329 0.0209451 0)
(-0.0197971 0.0324974 0)
(-0.0355216 0.0400874 0)
(-0.0527242 0.0432733 0)
(-0.0698334 0.0421764 0)
(-0.085433 0.0372632 0)
(-0.0983259 0.0292021 0)
(-0.107582 0.0187706 0)
(-0.112549 0.00681196 0)
(-0.00160686 0.0112108 0)
(-0.00931469 0.0318618 0)
(-0.0242012 0.0479332 0)
(-0.0429888 0.0580497 0)
(-0.0632371 0.0619136 0)
(-0.0831271 0.0598586 0)
(-0.101093 0.0526086 0)
(-0.115857 0.0411109 0)
(-0.12645 0.026428 0)
(-0.132198 0.00969052 0)
(-0.00193942 0.0164704 0)
(-0.0111181 0.0449572 0)
(-0.0286427 0.066209 0)
(-0.0504668 0.0790307 0)
(-0.0736662 0.0834162 0)
(-0.0961795 0.0800454 0)
(-0.116323 0.0699995 0)
(-0.132781 0.0545659 0)
(-0.144595 0.0351203 0)
(-0.151104 0.0130817 0)
(-0.00229951 0.0226866 0)
(-0.0130224 0.06028 0)
(-0.0332445 0.0873342 0)
(-0.0580689 0.102962 0)
(-0.0840591 0.107629 0)
(-0.108933 0.102527 0)
(-0.130943 0.0892146 0)
(-0.148807 0.0693884 0)
(-0.161637 0.0447582 0)
(-0.168837 0.0170163 0)
(-0.0027113 0.0299373 0)
(-0.0151063 0.0779327 0)
(-0.0381106 0.111323 0)
(-0.0658412 0.129711 0)
(-0.0943165 0.134277 0)
(-0.121086 0.126935 0)
(-0.144427 0.109869 0)
(-0.163195 0.0852566 0)
(-0.176667 0.055152 0)
(-0.184386 0.0214829 0)
(-0.00320756 0.0383491 0)
(-0.0174657 0.0980638 0)
(-0.0433397 0.138153 0)
(-0.0737543 0.159004 0)
(-0.104157 0.162858 0)
(-0.132027 0.152632 0)
(-0.15582 0.131306 0)
(-0.174672 0.101613 0)
(-0.18816 0.0659414 0)
(-0.19606 0.0263851 0)
(-0.00384413 0.0481182 0)
(-0.020247 0.120868 0)
(-0.0490484 0.167716 0)
(-0.0816894 0.190324 0)
(-0.113057 0.192514 0)
(-0.140751 0.178574 0)
(-0.163627 0.152477 0)
(-0.181315 0.117565 0)
(-0.193853 0.0765184 0)
(-0.201367 0.0314895 0)
(-0.00472579 0.0595614 0)
(-0.0236967 0.146593 0)
(-0.0553878 0.199722 0)
(-0.0893844 0.222751 0)
(-0.120133 0.22185 0)
(-0.14569 0.203148 0)
(-0.165647 0.171806 0)
(-0.180389 0.131784 0)
(-0.190601 0.0859537 0)
(-0.196883 0.0363715 0)
(-0.00605221 0.07322 0)
(-0.0282289 0.175542 0)
(-0.0625159 0.233541 0)
(-0.096269 0.254711 0)
(-0.123874 0.248694 0)
(-0.144419 0.22399 0)
(-0.158696 0.187076 0)
(-0.168136 0.142438 0)
(-0.174232 0.0929537 0)
(-0.17815 0.0403741 0)
(-0.00819281 0.0900398 0)
(-0.0344864 0.208003 0)
(-0.0704209 0.267859 0)
(-0.101038 0.283576 0)
(-0.121595 0.269779 0)
(-0.133134 0.23781 0)
(-0.138194 0.195377 0)
(-0.139498 0.147212 0)
(-0.139405 0.0958956 0)
(-0.139634 0.0426148 0)
(-0.0117682 0.111631 0)
(-0.0432634 0.243949 0)
(-0.0783062 0.300015 0)
(-0.100643 0.305069 0)
(-0.108373 0.280435 0)
(-0.105759 0.240357 0)
(-0.0975624 0.193259 0)
(-0.0878084 0.143531 0)
(-0.0795416 0.0930244 0)
(-0.0748275 0.0420907 0)
(-0.0175499 0.140657 0)
(-0.0547678 0.282137 0)
(-0.0827943 0.324705 0)
(-0.0880943 0.312457 0)
(-0.0751286 0.274437 0)
(-0.0526173 0.226752 0)
(-0.0274905 0.177271 0)
(-0.00455131 0.129122 0)
(0.0130587 0.082904 0)
(0.023398 0.0379434 0)
(-0.0254501 0.18171 0)
(-0.0657769 0.317767 0)
(-0.0733392 0.331355 0)
(-0.0480881 0.29539 0)
(-0.00559496 0.244199 0)
(0.0411961 0.192368 0)
(0.0846252 0.145036 0)
(0.120504 0.102963 0)
(0.146666 0.0651319 0)
(0.16201 0.029889 0)
(-0.0296491 0.239176 0)
(-0.0608425 0.335766 0)
(-0.0219462 0.300499 0)
(0.0505344 0.240122 0)
(0.12756 0.182942 0)
(0.196991 0.135382 0)
(0.254315 0.0973927 0)
(0.298225 0.0668461 0)
(0.328796 0.041352 0)
(0.346437 0.0187772 0)
(0.00808323 0.281862 0)
(0.0197829 0.294972 0)
(0.139065 0.210972 0)
(0.264456 0.143475 0)
(0.364361 0.0971835 0)
(0.440354 0.0657748 0)
(0.49673 0.0442351 0)
(0.536858 0.0288841 0)
(0.563428 0.0171977 0)
(0.578286 0.00748436 0)
(0.299604 0.146091 0)
(0.396272 0.127503 0)
(0.55742 0.0760894 0)
(0.674487 0.043723 0)
(0.743887 0.0255716 0)
(0.78715 0.0152417 0)
(0.815481 0.00921192 0)
(0.833949 0.0055091 0)
(0.845379 0.00302701 0)
(0.851364 0.00114932 0)
)
;

boundaryField
{
    movingWall
    {
        type            fixedValue;
        value           uniform (1 0 0);
    }
    fixedWalls
    {
        type            noSlip;
    }
    frontAndBack
    {
        type            empty;
    }
    procBoundary1to0
    {
        type            processor;
        value           nonuniform List<vector> 
20
(
(-0.0176959 -0.000145274 0)
(-0.0461119 -0.000812913 0)
(-0.0703733 -0.0021055 0)
(-0.0922687 -0.00380593 0)
(-0.112859 -0.00577719 0)
(-0.13271 -0.0079119 0)
(-0.151912 -0.0100809 0)
(-0.170032 -0.012127 0)
(-0.186037 -0.0138675 0)
(-0.198178 -0.0151052 0)
(-0.203863 -0.0156516 0)
(-0.199521 -0.015364 0)
(-0.180516 -0.014193 0)
(-0.141148 -0.0122287 0)
(-0.074845 -0.00972578 0)
(0.0253566 -0.00707156 0)
(0.165904 -0.00467042 0)
(0.351346 -0.00279351 0)
(0.582361 -0.0014938 0)
(0.852659 -0.000499287 0)
)
;
    }
}


// ************************************************************************* //
