/*--------------------------------*- C++ -*----------------------------------*\
| =========                 |                                                 |
| \\      /  F ield         | OpenFOAM: The Open Source CFD Toolbox           |
|  \\    /   O peration     | Version:  v2106                                 |
|   \\  /    A nd           | Website:  www.openfoam.com                      |
|    \\/     M anipulation  |                                                 |
\*---------------------------------------------------------------------------*/
FoamFile
{
    version     2.0;
    format      ascii;
    arch        "LSB;label=32;scalar=64";
    class       volScalarField;
    location    "0.4";
    object      p;
}
// * * * * * * * * * * * * * * * * * * * * * * * * * * * * * * * * * * * * * //

dimensions      [0 2 -2 0 0 0 0];

internalField   nonuniform List<scalar> 
200
(
2.85411e-06
0.0155825
0.0293382
0.0400678
0.0468121
0.0490264
0.0467855
0.0410039
0.033641
0.0278277
-0.00149032
0.0111459
0.0223463
0.0311697
0.0368801
0.0390757
0.0378374
0.0338151
0.0280347
0.0220786
-0.00247443
0.00862972
0.0185286
0.0263964
0.0315671
0.0336383
0.032602
0.0288465
0.0225663
0.0142966
-0.00324782
0.0074142
0.0169931
0.0246762
0.0297635
0.0317619
0.0305263
0.0262168
0.018364
0.00686391
-0.00415468
0.00683024
0.0168092
0.0249254
0.0303868
0.0325582
0.0311296
0.0260506
0.0162867
0.00129874
-0.0054257
0.00666378
0.0178086
0.0270636
0.0334952
0.0362775
0.0348997
0.0290945
0.0173006
-0.0013482
-0.00732961
0.00670507
0.0198729
0.031106
0.0392826
0.0433303
0.0424816
0.0362082
0.0223817
-0.000166457
-0.0101864
0.00669462
0.0228443
0.0370508
0.0479617
0.054191
0.0546313
0.0483972
0.0326577
0.0058783
-0.0143376
0.00635484
0.0265588
0.0449158
0.0598087
0.0694623
0.0723118
0.0669531
0.0495957
0.0181731
-0.0200926
0.00542272
0.0308572
0.0547338
0.0751574
0.0898871
0.0967499
0.0935793
0.0752021
0.0386953
-0.0276323
0.00371525
0.0356177
0.0665553
0.0943854
0.116347
0.129488
0.130539
0.112282
0.0703321
-0.0368644
0.00123585
0.0408174
0.0804651
0.117898
0.149848
0.17243
0.180838
0.164812
0.117394
-0.0472517
-0.00169853
0.0466047
0.0965916
0.146081
0.191451
0.227836
0.248426
0.238504
0.186537
-0.0576748
-0.00437361
0.0533171
0.115039
0.179137
0.24205
0.298159
0.338337
0.341675
0.288595
-0.0664505
-0.00576136
0.0613163
0.135601
0.216624
0.301733
0.385378
0.456462
0.486437
0.442152
-0.0716621
-0.00488795
0.0705703
0.157235
0.256738
0.368788
0.489792
0.608537
0.689533
0.679157
-0.0719531
-0.00154029
0.0800272
0.177482
0.295689
0.438918
0.608759
0.798104
0.972033
1.05426
-0.0678134
0.00222161
0.0857014
0.189835
0.323867
0.499441
0.728056
1.01608
1.36005
1.6869
-0.062505
-0.000448948
0.0759764
0.175547
0.311576
0.504747
0.783156
1.19334
1.86844
2.88096
-0.0598905
-0.015575
0.0413719
0.118494
0.229175
0.398863
0.674982
1.18247
2.3678
4.80529
)
;

boundaryField
{
    movingWall
    {
        type            zeroGradient;
    }
    fixedWalls
    {
        type            zeroGradient;
    }
    frontAndBack
    {
        type            empty;
    }
    procBoundary0to1
    {
        type            processor;
        value           nonuniform List<scalar> 
20
(
-0.0160906
-0.014528
-0.0138904
-0.0141447
-0.0152906
-0.0175605
-0.021263
-0.026755
-0.0344155
-0.044575
-0.0573934
-0.0726852
-0.0897095
-0.106982
-0.122222
-0.132619
-0.1357
-0.130452
-0.116832
-0.096747
)
;
    }
}


// ************************************************************************* //
