/*--------------------------------*- C++ -*----------------------------------*\
| =========                 |                                                 |
| \\      /  F ield         | OpenFOAM: The Open Source CFD Toolbox           |
|  \\    /   O peration     | Version:  v2106                                 |
|   \\  /    A nd           | Website:  www.openfoam.com                      |
|    \\/     M anipulation  |                                                 |
\*---------------------------------------------------------------------------*/
FoamFile
{
    version     2.0;
    format      ascii;
    arch        "LSB;label=32;scalar=64";
    class       surfaceScalarField;
    location    "0.4";
    object      phi;
}
// * * * * * * * * * * * * * * * * * * * * * * * * * * * * * * * * * * * * * //

dimensions      [0 3 -1 0 0 0 0];

oriented        oriented;

internalField   nonuniform List<scalar> 
370
(
-8.64339e-07
-2.13347e-08
-7.97402e-07
-6.69376e-08
-6.90095e-07
-1.07307e-07
-5.5198e-07
-1.38115e-07
-3.96949e-07
-1.55032e-07
-2.42752e-07
-1.54197e-07
-1.09735e-07
-1.33018e-07
-1.84165e-08
-9.13183e-08
1.56897e-08
-3.41063e-08
1.56897e-08
-2.25396e-06
-7.34718e-08
-2.09311e-06
-2.27795e-07
-1.83631e-06
-3.64104e-07
-1.50608e-06
-4.68345e-07
-1.13411e-06
-5.27003e-07
-7.59539e-07
-5.28767e-07
-4.2541e-07
-4.67147e-07
-1.72696e-07
-3.44033e-07
-3.08028e-08
-1.76e-07
-1.51131e-08
-3.44366e-06
-1.48413e-07
-3.21233e-06
-4.59117e-07
-2.84217e-06
-7.34266e-07
-2.36386e-06
-9.46661e-07
-1.82035e-06
-1.07051e-06
-1.26451e-06
-1.08461e-06
-7.54538e-07
-9.77124e-07
-3.46978e-07
-7.51593e-07
-8.73378e-08
-4.35639e-07
-1.02451e-07
-4.52034e-06
-2.40085e-07
-4.23281e-06
-7.46647e-07
-3.76944e-06
-1.19764e-06
-3.16569e-06
-1.5504e-06
-2.47192e-06
-1.76428e-06
-1.7511e-06
-1.80543e-06
-1.07453e-06
-1.65369e-06
-5.15147e-07
-1.31097e-06
-1.39318e-07
-8.11469e-07
-2.41769e-07
-5.53583e-06
-3.42855e-07
-5.20244e-06
-1.08003e-06
-4.65894e-06
-1.74115e-06
-3.943e-06
-2.26634e-06
-3.10974e-06
-2.59754e-06
-2.23052e-06
-2.68464e-06
-1.38965e-06
-2.49457e-06
-6.78507e-07
-2.02212e-06
-1.8777e-07
-1.30221e-06
-4.29538e-07
-6.51839e-06
-4.50589e-07
-6.14887e-06
-1.44956e-06
-5.5366e-06
-2.35341e-06
-4.71897e-06
-3.08397e-06
-3.7535e-06
-3.56302e-06
-2.7185e-06
-3.71964e-06
-1.71155e-06
-3.50151e-06
-8.4467e-07
-2.889e-06
-2.36182e-07
-1.91069e-06
-6.6572e-07
-7.47323e-06
-5.56052e-07
-7.07918e-06
-1.84361e-06
-6.41194e-06
-3.02065e-06
-5.50564e-06
-3.99027e-06
-4.4171e-06
-4.65155e-06
-3.2294e-06
-4.90734e-06
-2.05297e-06
-4.67794e-06
-1.02255e-06
-3.91943e-06
-2.88284e-07
-2.64496e-06
-9.54004e-07
-8.38002e-06
-6.50704e-07
-7.97695e-06
-2.24668e-06
-7.27463e-06
-3.72297e-06
-6.3e-06
-4.9649e-06
-5.10471e-06
-5.84684e-06
-3.77256e-06
-6.23949e-06
-2.4249e-06
-6.0256e-06
-1.22076e-06
-5.12358e-06
-3.4771e-07
-3.518e-06
-1.30171e-06
-9.18869e-06
-7.24977e-07
-8.79752e-06
-2.63785e-06
-8.0894e-06
-4.43109e-06
-7.07905e-06
-5.97525e-06
-5.80635e-06
-7.11954e-06
-4.34907e-06
-7.69678e-06
-2.83483e-06
-7.53984e-06
-1.4471e-06
-6.51131e-06
-4.18101e-07
-4.547e-06
-1.71981e-06
-9.81346e-06
-7.69148e-07
-9.46142e-06
-2.98989e-06
-8.78914e-06
-5.10337e-06
-7.79303e-06
-6.97136e-06
-6.49223e-06
-8.42034e-06
-4.94799e-06
-9.24102e-06
-3.28512e-06
-9.2027e-06
-1.70868e-06
-8.08774e-06
-5.03589e-07
-5.7521e-06
-2.2234e-06
-1.01258e-05
-7.74896e-07
-9.84633e-06
-3.26934e-06
-9.26598e-06
-5.68371e-06
-8.35633e-06
-7.88102e-06
-7.10469e-06
-9.67198e-06
-5.5407e-06
-1.0805e-05
-3.7707e-06
-1.09727e-05
-2.01217e-06
-9.84628e-06
-6.09688e-07
-7.15457e-06
-2.83309e-06
-9.9472e-06
-7.37475e-07
-9.77855e-06
-3.43798e-06
-9.36086e-06
-6.1014e-06
-8.63559e-06
-8.60628e-06
-7.54637e-06
-1.07612e-05
-6.07157e-06
-1.22798e-05
-4.27426e-06
-1.277e-05
-2.36364e-06
-1.17569e-05
-7.44776e-07
-8.77344e-06
-3.57787e-06
-9.04432e-06
-6.58153e-07
-9.02571e-06
-3.4566e-06
-8.85256e-06
-6.27455e-06
-8.43479e-06
-9.02405e-06
-7.66289e-06
-1.15331e-05
-6.44199e-06
-1.35007e-05
-4.75625e-06
-1.44557e-05
-2.76674e-06
-1.37464e-05
-9.22433e-07
-1.06178e-05
-4.5003e-06
-7.12848e-06
-5.46048e-07
-7.29364e-06
-3.29143e-06
-7.44853e-06
-6.11965e-06
-7.4778e-06
-8.99478e-06
-7.21787e-06
-1.1793e-05
-6.48271e-06
-1.42359e-05
-5.13341e-06
-1.5805e-05
-3.21497e-06
-1.56648e-05
-1.16438e-06
-1.26683e-05
-5.66468e-06
-3.86497e-06
-4.17938e-07
-4.23249e-06
-2.92391e-06
-4.78195e-06
-5.57019e-06
-5.39096e-06
-8.38577e-06
-5.85841e-06
-1.13256e-05
-5.90652e-06
-1.41878e-05
-5.23278e-06
-1.64788e-05
-3.66625e-06
-1.72314e-05
-1.50007e-06
-1.48345e-05
-7.16476e-06
1.10222e-06
-2.94393e-07
5.41206e-07
-2.36289e-06
-4.228e-07
-4.60619e-06
-1.69246e-06
-7.11611e-06
-3.07232e-06
-9.94572e-06
-4.23076e-06
-1.30293e-05
-4.69561e-06
-1.60139e-05
-3.96716e-06
-1.79598e-05
-1.94492e-06
-1.68568e-05
-9.10967e-06
8.10403e-06
-1.91725e-07
7.39916e-06
-1.65803e-06
6.08697e-06
-3.294e-06
4.19928e-06
-5.22842e-06
1.85423e-06
-7.60067e-06
-6.61662e-07
-1.05134e-05
-2.79214e-06
-1.38834e-05
-3.66207e-06
-1.70899e-05
-2.41154e-06
-1.81073e-05
-1.15212e-05
1.73765e-05
-1.13204e-07
1.66306e-05
-9.1216e-07
1.51673e-05
-1.83067e-06
1.29236e-05
-2.98474e-06
9.86181e-06
-4.53889e-06
6.062e-06
-6.71364e-06
1.91236e-06
-9.73381e-06
-1.55961e-06
-1.36179e-05
-2.45833e-06
-1.72086e-05
-1.39795e-05
2.89623e-05
-4.89826e-08
2.83388e-05
-2.88701e-07
2.70819e-05
-5.73744e-07
2.50551e-05
-9.5796e-07
2.20517e-05
-1.53553e-06
1.78155e-05
-2.47742e-06
1.21724e-05
-4.09068e-06
5.47773e-06
-6.92324e-06
-1.29168e-07
-1.16017e-05
-1.41087e-05
4.25577e-05
4.2269e-05
4.16952e-05
4.07373e-05
3.92017e-05
3.67243e-05
3.26336e-05
2.57104e-05
1.41087e-05
)
;

boundaryField
{
    movingWall
    {
        type            calculated;
        value           uniform 0;
    }
    fixedWalls
    {
        type            calculated;
        value           uniform 0;
    }
    frontAndBack
    {
        type            empty;
        value           nonuniform List<scalar> 0();
    }
    procBoundary0to1
    {
        type            processor;
        value           nonuniform List<scalar> 
20
(
8.85646e-07
2.3061e-06
3.5186e-06
4.61201e-06
5.6386e-06
6.62613e-06
7.5787e-06
8.47468e-06
9.26296e-06
9.85763e-06
1.01315e-05
9.90978e-06
8.965e-06
7.01637e-06
3.73686e-06
-1.22576e-06
-8.20669e-06
-1.7455e-05
-2.90265e-05
-4.26067e-05
)
;
    }
}


// ************************************************************************* //
