/*--------------------------------*- C++ -*----------------------------------*\
| =========                 |                                                 |
| \\      /  F ield         | OpenFOAM: The Open Source CFD Toolbox           |
|  \\    /   O peration     | Version:  v2106                                 |
|   \\  /    A nd           | Website:  www.openfoam.com                      |
|    \\/     M anipulation  |                                                 |
\*---------------------------------------------------------------------------*/
FoamFile
{
    version     2.0;
    format      ascii;
    arch        "LSB;label=32;scalar=64";
    class       volVectorField;
    location    "0.4";
    object      U;
}
// * * * * * * * * * * * * * * * * * * * * * * * * * * * * * * * * * * * * * //

dimensions      [0 1 -1 0 0 0 0];

internalField   nonuniform List<vector> 
200
(
(-0.0177025 -0.000145408 0)
(-0.0168055 -0.000468438 0)
(-0.0150304 -0.000755449 0)
(-0.0125254 -0.000974288 0)
(-0.00952659 -0.00109121 0)
(-0.0063551 -0.00107403 0)
(-0.0034007 -0.000898136 0)
(-0.00108644 -0.000556398 0)
(0.000196433 -9.03665e-05 0)
(0.000267866 0.00026239 0)
(-0.046131 -0.000813472 0)
(-0.0439629 -0.00254727 0)
(-0.0397026 -0.00407882 0)
(-0.0337038 -0.00524529 0)
(-0.0265143 -0.00588676 0)
(-0.0188552 -0.00586504 0)
(-0.011567 -0.00509491 0)
(-0.00551345 -0.00358952 0)
(-0.00149312 -0.00155917 0)
(-4.25785e-05 0.000227467 0)
(-0.0704034 -0.00210677 0)
(-0.067287 -0.0065258 0)
(-0.0611548 -0.0104296 0)
(-0.0524905 -0.0134216 0)
(-0.0420386 -0.015124 0)
(-0.0307751 -0.0152261 0)
(-0.0198298 -0.0135564 0)
(-0.0103639 -0.0101792 0)
(-0.00354863 -0.00555123 0)
(-0.000476859 -0.000948853 0)
(-0.092307 -0.00380824 0)
(-0.0884536 -0.0117971 0)
(-0.0808081 -0.0188829 0)
(-0.0699256 -0.0243772 0)
(-0.0566713 -0.0276286 0)
(-0.0421964 -0.0281027 0)
(-0.0278576 -0.0254985 0)
(-0.0150942 -0.0198923 0)
(-0.00550522 -0.011928 0)
(-0.000861628 -0.00322495 0)
(-0.112901 -0.00578073 0)
(-0.108478 -0.0180554 0)
(-0.0995658 -0.0290124 0)
(-0.0867423 -0.0376339 0)
(-0.0709382 -0.0429463 0)
(-0.0534321 -0.0441301 0)
(-0.0357858 -0.0406798 0)
(-0.0197358 -0.0325933 0)
(-0.00737082 -0.0205911 0)
(-0.00120371 -0.00649831 0)
(-0.132753 -0.0079167 0)
(-0.127926 -0.0251329 0)
(-0.117969 -0.040626 0)
(-0.103436 -0.0530206 0)
(-0.0852709 -0.0609675 0)
(-0.064837 -0.0632813 0)
(-0.0438864 -0.0591431 0)
(-0.0244782 -0.0483452 0)
(-0.0092545 -0.0315581 0)
(-0.00153778 -0.0107287 0)
(-0.151951 -0.0100869 0)
(-0.146917 -0.0328333 0)
(-0.136183 -0.0535006 0)
(-0.120225 -0.070338 0)
(-0.0999338 -0.0815664 0)
(-0.0767023 -0.0855338 0)
(-0.0524407 -0.0809647 0)
(-0.0295452 -0.0672778 0)
(-0.0112837 -0.0449401 0)
(-0.0019001 -0.0159518 0)
(-0.170064 -0.0121339 0)
(-0.165072 -0.0408938 0)
(-0.15393 -0.0673151 0)
(-0.13697 -0.0892741 0)
(-0.114943 -0.104513 0)
(-0.0891761 -0.110797 0)
(-0.0616709 -0.106213 0)
(-0.0351484 -0.0895801 0)
(-0.0135859 -0.0609499 0)
(-0.00232634 -0.0222777 0)
(-0.186057 -0.013875 0)
(-0.181421 -0.048957 0)
(-0.170395 -0.0815939 0)
(-0.153081 -0.109324 0)
(-0.129971 -0.129382 0)
(-0.102186 -0.138829 0)
(-0.0716894 -0.134887 0)
(-0.0414669 -0.11547 0)
(-0.016288 -0.0798956 0)
(-0.00285469 -0.0298897 0)
(-0.198186 -0.0151128 0)
(-0.194283 -0.0565455 0)
(-0.184081 -0.0956422 0)
(-0.167366 -0.129689 0)
(-0.144215 -0.155424 0)
(-0.115338 -0.169097 0)
(-0.0824457 -0.166803 0)
(-0.048636 -0.145124 0)
(-0.0195287 -0.10216 0)
(-0.00353356 -0.0390472 0)
(-0.203857 -0.0156589 0)
(-0.20111 -0.0630505 0)
(-0.192649 -0.108491 0)
(-0.177857 -0.149171 0)
(-0.156224 -0.181415 0)
(-0.127779 -0.200606 0)
(-0.0936441 -0.201424 0)
(-0.056733 -0.178573 0)
(-0.0234798 -0.128173 0)
(-0.00443553 -0.0501043 0)
(-0.199502 -0.0153705 0)
(-0.198336 -0.0677429 0)
(-0.192718 -0.118867 0)
(-0.181574 -0.166078 0)
(-0.163645 -0.205488 0)
(-0.137967 -0.231661 0)
(-0.104596 -0.237625 0)
(-0.0657335 -0.215525 0)
(-0.0283777 -0.158367 0)
(-0.00568208 -0.0635521 0)
(-0.180485 -0.0141984 0)
(-0.181266 -0.0698211 0)
(-0.179696 -0.125211 0)
(-0.17427 -0.17818 0)
(-0.162895 -0.224973 0)
(-0.143316 -0.259588 0)
(-0.113938 -0.273329 0)
(-0.0753931 -0.255066 0)
(-0.0345563 -0.19309 0)
(-0.00748628 -0.0801041 0)
(-0.141109 -0.0122329 0)
(-0.144055 -0.068507 0)
(-0.147668 -0.125794 0)
(-0.150169 -0.182769 0)
(-0.14872 -0.236324 0)
(-0.139643 -0.280446 0)
(-0.119095 -0.305025 0)
(-0.084936 -0.295158 0)
(-0.0424405 -0.232377 0)
(-0.010216 -0.100837 0)
(-0.0748014 -0.00972875 0)
(-0.0798893 -0.0632111 0)
(-0.0894615 -0.11899 0)
(-0.101787 -0.176957 0)
(-0.113685 -0.235285 0)
(-0.120304 -0.288882 0)
(-0.115263 -0.327195 0)
(-0.0922663 -0.331794 0)
(-0.0523156 -0.275403 0)
(-0.0144303 -0.127347 0)
(0.0254004 -0.0070735 0)
(0.0185093 -0.0537585 0)
(0.00298149 -0.103752 0)
(-0.0199954 -0.15832 0)
(-0.0476847 -0.217502 0)
(-0.0749839 -0.278361 0)
(-0.0935461 -0.331791 0)
(-0.0920634 -0.357682 0)
(-0.0632804 -0.319294 0)
(-0.0206336 -0.161974 0)
(0.165943 -0.0046716 0)
(0.157937 -0.0406285 0)
(0.137733 -0.0802466 0)
(0.105441 -0.125918 0)
(0.0622631 -0.179726 0)
(0.0118064 -0.24202 0)
(-0.0378295 -0.307878 0)
(-0.0716792 -0.360143 0)
(-0.0700554 -0.356608 0)
(-0.0279122 -0.208375 0)
(0.351377 -0.00279419 0)
(0.343304 -0.0252652 0)
(0.32147 -0.0507878 0)
(0.284643 -0.0820481 0)
(0.231572 -0.122446 0)
(0.162181 -0.175669 0)
(0.0799008 -0.243431 0)
(-0.00318977 -0.319136 0)
(-0.0546695 -0.368612 0)
(-0.0284594 -0.267618 0)
(0.582381 -0.00149413 0)
(0.575696 -0.0108453 0)
(0.557309 -0.0218471 0)
(0.525135 -0.0363349 0)
(0.475777 -0.0572596 0)
(0.404537 -0.0893841 0)
(0.305176 -0.139741 0)
(0.173417 -0.216386 0)
(0.041172 -0.311655 0)
(0.0184302 -0.299995 0)
(0.852666 -0.000499387 0)
(0.849382 -0.00221507 0)
(0.840999 -0.00433856 0)
(0.82614 -0.00742408 0)
(0.802078 -0.0125322 0)
(0.763621 -0.0217728 0)
(0.699108 -0.0392829 0)
(0.583952 -0.0726601 0)
(0.415827 -0.127868 0)
(0.308819 -0.149468 0)
)
;

boundaryField
{
    movingWall
    {
        type            fixedValue;
        value           uniform (1 0 0);
    }
    fixedWalls
    {
        type            noSlip;
    }
    frontAndBack
    {
        type            empty;
    }
    procBoundary0to1
    {
        type            processor;
        value           nonuniform List<vector> 
20
(
(-0.0176585 0.000184501 0)
(-0.0460486 0.000966838 0)
(-0.0702854 0.00243884 0)
(-0.0921224 0.0044051 0)
(-0.112593 0.00681378 0)
(-0.132241 0.00969293 0)
(-0.151144 0.0130847 0)
(-0.168868 0.0170198 0)
(-0.184406 0.0214869 0)
(-0.196068 0.0263895 0)
(-0.201361 0.0314943 0)
(-0.196863 0.0363765 0)
(-0.178119 0.0403792 0)
(-0.139595 0.0426196 0)
(-0.0747837 0.042095 0)
(0.0234418 0.0379469 0)
(0.162049 0.0298914 0)
(0.346468 0.0187786 0)
(0.578306 0.00748477 0)
(0.851371 0.00114934 0)
)
;
    }
}


// ************************************************************************* //
