/*--------------------------------*- C++ -*----------------------------------*\
| =========                 |                                                 |
| \\      /  F ield         | OpenFOAM: The Open Source CFD Toolbox           |
|  \\    /   O peration     | Version:  v2106                                 |
|   \\  /    A nd           | Website:  www.openfoam.com                      |
|    \\/     M anipulation  |                                                 |
\*---------------------------------------------------------------------------*/
FoamFile
{
    version     2.0;
    format      ascii;
    arch        "LSB;label=32;scalar=64";
    class       volScalarField;
    location    "0.5";
    object      p;
}
// * * * * * * * * * * * * * * * * * * * * * * * * * * * * * * * * * * * * * //

dimensions      [0 2 -2 0 0 0 0];

internalField   nonuniform List<scalar> 
200
(
3.14992e-06
0.0155833
0.0293392
0.040069
0.0468133
0.0490275
0.0467864
0.0410045
0.0336414
0.0278279
-0.00148998
0.0111464
0.022347
0.0311705
0.0368809
0.0390764
0.037838
0.0338155
0.0280349
0.0220786
-0.00247416
0.00863012
0.0185291
0.026397
0.0315677
0.0336388
0.0326023
0.0288466
0.0225663
0.0142963
-0.00324763
0.00741448
0.0169935
0.0246766
0.0297638
0.0317622
0.0305265
0.0262168
0.0183637
0.00686335
-0.00415459
0.00683039
0.0168094
0.0249256
0.030387
0.0325584
0.0311296
0.0260505
0.0162863
0.00129794
-0.00542573
0.0066638
0.0178086
0.0270637
0.0334952
0.0362775
0.0348996
0.0290942
0.0173
-0.00134914
-0.00732979
0.00670492
0.0198727
0.0311059
0.0392825
0.0433302
0.0424814
0.0362078
0.0223812
-0.000167425
-0.0101867
0.00669431
0.022844
0.0370506
0.0479614
0.0541908
0.0546311
0.0483969
0.0326571
0.00587741
-0.0143381
0.00635435
0.0265583
0.0449153
0.0598083
0.069462
0.0723114
0.0669527
0.0495952
0.0181724
-0.0200933
0.00542206
0.0308566
0.0547332
0.0751569
0.0898866
0.0967494
0.093579
0.0752017
0.0386948
-0.0276332
0.00371443
0.035617
0.0665547
0.0943849
0.116347
0.129488
0.130539
0.112282
0.0703319
-0.0368654
0.00123489
0.0408165
0.0804644
0.117898
0.149847
0.172429
0.180838
0.164812
0.117394
-0.0472528
-0.00169956
0.0466037
0.0965909
0.14608
0.191451
0.227836
0.248426
0.238504
0.186537
-0.0576758
-0.00437463
0.0533162
0.115038
0.179136
0.24205
0.298159
0.338337
0.341675
0.288595
-0.0664514
-0.00576224
0.0613155
0.1356
0.216623
0.301732
0.385378
0.456462
0.486437
0.442153
-0.0716629
-0.00488866
0.0705697
0.157234
0.256738
0.368788
0.489792
0.608538
0.689534
0.679158
-0.0719538
-0.00154086
0.0800267
0.177481
0.295689
0.438918
0.60876
0.798104
0.972034
1.05427
-0.067814
0.00222108
0.0857009
0.189834
0.323866
0.499441
0.728056
1.01608
1.36005
1.6869
-0.0625056
-0.000449597
0.0759758
0.175546
0.311575
0.504747
0.783156
1.19334
1.86844
2.88096
-0.0598911
-0.0155759
0.041371
0.118493
0.229175
0.398862
0.674982
1.18247
2.3678
4.80529
)
;

boundaryField
{
    movingWall
    {
        type            zeroGradient;
    }
    fixedWalls
    {
        type            zeroGradient;
    }
    frontAndBack
    {
        type            empty;
    }
    procBoundary0to1
    {
        type            processor;
        value           nonuniform List<scalar> 
20
(
-0.0160905
-0.0145278
-0.0138903
-0.0141446
-0.0152905
-0.0175605
-0.0212632
-0.0267553
-0.034416
-0.0445757
-0.0573943
-0.0726861
-0.0897104
-0.106983
-0.122223
-0.13262
-0.135701
-0.130452
-0.116832
-0.096747
)
;
    }
}


// ************************************************************************* //
