/*--------------------------------*- C++ -*----------------------------------*\
| =========                 |                                                 |
| \\      /  F ield         | OpenFOAM: The Open Source CFD Toolbox           |
|  \\    /   O peration     | Version:  v2106                                 |
|   \\  /    A nd           | Website:  www.openfoam.com                      |
|    \\/     M anipulation  |                                                 |
\*---------------------------------------------------------------------------*/
FoamFile
{
    version     2.0;
    format      ascii;
    arch        "LSB;label=32;scalar=64";
    class       surfaceScalarField;
    location    "0.5";
    object      phi;
}
// * * * * * * * * * * * * * * * * * * * * * * * * * * * * * * * * * * * * * //

dimensions      [0 3 -1 0 0 0 0];

oriented        oriented;

internalField   nonuniform List<scalar> 
370
(
-8.64369e-07
-2.1337e-08
-7.97429e-07
-6.69408e-08
-6.90118e-07
-1.07311e-07
-5.51998e-07
-1.3812e-07
-3.96961e-07
-1.55037e-07
-2.42759e-07
-1.54202e-07
-1.09737e-07
-1.33022e-07
-1.84166e-08
-9.13208e-08
1.56904e-08
-3.4107e-08
1.56904e-08
-2.25404e-06
-7.34763e-08
-2.09318e-06
-2.27805e-07
-1.83637e-06
-3.64118e-07
-1.50613e-06
-4.68363e-07
-1.13415e-06
-5.27021e-07
-7.59563e-07
-5.28785e-07
-4.25422e-07
-4.67162e-07
-1.72701e-07
-3.44043e-07
-3.08035e-08
-1.76004e-07
-1.51131e-08
-3.44377e-06
-1.48421e-07
-3.21244e-06
-4.59137e-07
-2.84226e-06
-7.34294e-07
-2.36393e-06
-9.46695e-07
-1.82041e-06
-1.07054e-06
-1.26455e-06
-1.08464e-06
-7.5456e-07
-9.77154e-07
-3.46988e-07
-7.51615e-07
-8.73403e-08
-4.35652e-07
-1.02453e-07
-4.52048e-06
-2.40097e-07
-4.23294e-06
-7.46677e-07
-3.76955e-06
-1.19769e-06
-3.16579e-06
-1.55046e-06
-2.47199e-06
-1.76434e-06
-1.75115e-06
-1.80549e-06
-1.07456e-06
-1.65375e-06
-5.15162e-07
-1.31101e-06
-1.39322e-07
-8.11491e-07
-2.41775e-07
-5.53598e-06
-3.42873e-07
-5.20258e-06
-1.08008e-06
-4.65906e-06
-1.74121e-06
-3.94311e-06
-2.26641e-06
-3.10982e-06
-2.59762e-06
-2.23058e-06
-2.68473e-06
-1.38969e-06
-2.49464e-06
-6.78523e-07
-2.02218e-06
-1.87775e-07
-1.30224e-06
-4.2955e-07
-6.51854e-06
-4.50612e-07
-6.14901e-06
-1.44961e-06
-5.53672e-06
-2.35349e-06
-4.71907e-06
-3.08406e-06
-3.75358e-06
-3.56312e-06
-2.71856e-06
-3.71974e-06
-1.71159e-06
-3.50161e-06
-8.44687e-07
-2.88908e-06
-2.36187e-07
-1.91074e-06
-6.65736e-07
-7.47337e-06
-5.56079e-07
-7.07931e-06
-1.84367e-06
-6.41205e-06
-3.02074e-06
-5.50573e-06
-3.99039e-06
-4.41717e-06
-4.65168e-06
-3.22945e-06
-4.90746e-06
-2.053e-06
-4.67806e-06
-1.02256e-06
-3.91952e-06
-2.88289e-07
-2.64502e-06
-9.54025e-07
-8.38013e-06
-6.50734e-07
-7.97705e-06
-2.24675e-06
-7.27472e-06
-3.72308e-06
-6.30007e-06
-4.96503e-06
-5.10477e-06
-5.84698e-06
-3.7726e-06
-6.23963e-06
-2.42493e-06
-6.02572e-06
-1.22077e-06
-5.12368e-06
-3.47714e-07
-3.51807e-06
-1.30174e-06
-9.18876e-06
-7.25008e-07
-8.79759e-06
-2.63792e-06
-8.08946e-06
-4.4312e-06
-7.0791e-06
-5.97539e-06
-5.80639e-06
-7.11969e-06
-4.3491e-06
-7.69693e-06
-2.83485e-06
-7.53998e-06
-1.44711e-06
-6.51142e-06
-4.18103e-07
-4.54708e-06
-1.71984e-06
-9.81349e-06
-7.69179e-07
-9.46144e-06
-2.98997e-06
-8.78917e-06
-5.10348e-06
-7.79305e-06
-6.9715e-06
-6.49225e-06
-8.42049e-06
-4.948e-06
-9.24118e-06
-3.28513e-06
-9.20284e-06
-1.70869e-06
-8.08786e-06
-5.0359e-07
-5.75217e-06
-2.22343e-06
-1.01258e-05
-7.74925e-07
-9.84631e-06
-3.26941e-06
-9.26597e-06
-5.68382e-06
-8.35632e-06
-7.88115e-06
-7.10469e-06
-9.67213e-06
-5.54069e-06
-1.08052e-05
-3.7707e-06
-1.09728e-05
-2.01217e-06
-9.8464e-06
-6.09688e-07
-7.15465e-06
-2.83312e-06
-9.94713e-06
-7.37501e-07
-9.77849e-06
-3.43805e-06
-9.36081e-06
-6.1015e-06
-8.63555e-06
-8.60641e-06
-7.54634e-06
-1.07613e-05
-6.07155e-06
-1.228e-05
-4.27425e-06
-1.27701e-05
-2.36364e-06
-1.1757e-05
-7.44774e-07
-8.77351e-06
-3.57789e-06
-9.04421e-06
-6.58175e-07
-9.02561e-06
-3.45665e-06
-8.85248e-06
-6.27463e-06
-8.43473e-06
-9.02416e-06
-7.66283e-06
-1.15332e-05
-6.44195e-06
-1.35008e-05
-4.75622e-06
-1.44559e-05
-2.76673e-06
-1.37465e-05
-9.2243e-07
-1.06178e-05
-4.50032e-06
-7.12834e-06
-5.46065e-07
-7.29352e-06
-3.29148e-06
-7.44842e-06
-6.11973e-06
-7.47771e-06
-8.99488e-06
-7.2178e-06
-1.17931e-05
-6.48266e-06
-1.4236e-05
-5.13338e-06
-1.58051e-05
-3.21495e-06
-1.56649e-05
-1.16438e-06
-1.26684e-05
-5.6647e-06
-3.86482e-06
-4.17951e-07
-4.23235e-06
-2.92395e-06
-4.78183e-06
-5.57025e-06
-5.39086e-06
-8.38585e-06
-5.85833e-06
-1.13257e-05
-5.90646e-06
-1.41879e-05
-5.23275e-06
-1.64789e-05
-3.66624e-06
-1.72314e-05
-1.50007e-06
-1.48346e-05
-7.16477e-06
1.10238e-06
-2.94401e-07
5.41352e-07
-2.36292e-06
-4.22671e-07
-4.60623e-06
-1.69235e-06
-7.11617e-06
-3.07224e-06
-9.94578e-06
-4.2307e-06
-1.30294e-05
-4.69557e-06
-1.6014e-05
-3.96714e-06
-1.79599e-05
-1.94491e-06
-1.68568e-05
-9.10969e-06
8.10417e-06
-1.9173e-07
7.3993e-06
-1.65805e-06
6.08709e-06
-3.29402e-06
4.19938e-06
-5.22845e-06
1.85431e-06
-7.60071e-06
-6.61606e-07
-1.05135e-05
-2.79211e-06
-1.38835e-05
-3.66206e-06
-1.70899e-05
-2.41153e-06
-1.81073e-05
-1.15212e-05
1.73766e-05
-1.13207e-07
1.66307e-05
-9.12168e-07
1.51674e-05
-1.83068e-06
1.29237e-05
-2.98476e-06
9.86187e-06
-4.53891e-06
6.06205e-06
-6.71366e-06
1.91239e-06
-9.73382e-06
-1.5596e-06
-1.36179e-05
-2.45833e-06
-1.72086e-05
-1.39795e-05
2.89624e-05
-4.89836e-08
2.83389e-05
-2.88704e-07
2.7082e-05
-5.73747e-07
2.50552e-05
-9.57964e-07
2.20518e-05
-1.53553e-06
1.78156e-05
-2.47742e-06
1.21724e-05
-4.09069e-06
5.47774e-06
-6.92325e-06
-1.29166e-07
-1.16017e-05
-1.41087e-05
4.25577e-05
4.2269e-05
4.16952e-05
4.07373e-05
3.92018e-05
3.67243e-05
3.26336e-05
2.57104e-05
1.41087e-05
)
;

boundaryField
{
    movingWall
    {
        type            calculated;
        value           uniform 0;
    }
    fixedWalls
    {
        type            calculated;
        value           uniform 0;
    }
    frontAndBack
    {
        type            empty;
        value           nonuniform List<scalar> 0();
    }
    procBoundary0to1
    {
        type            processor;
        value           nonuniform List<scalar> 
20
(
8.85676e-07
2.30618e-06
3.51872e-06
4.61216e-06
5.63876e-06
6.62628e-06
7.57883e-06
8.47478e-06
9.26304e-06
9.85766e-06
1.01315e-05
9.90971e-06
8.96489e-06
7.01623e-06
3.7367e-06
-1.22592e-06
-8.20684e-06
-1.74551e-05
-2.90266e-05
-4.26067e-05
)
;
    }
}


// ************************************************************************* //
