/*--------------------------------*- C++ -*----------------------------------*\
| =========                 |                                                 |
| \\      /  F ield         | OpenFOAM: The Open Source CFD Toolbox           |
|  \\    /   O peration     | Version:  v2106                                 |
|   \\  /    A nd           | Website:  www.openfoam.com                      |
|    \\/     M anipulation  |                                                 |
\*---------------------------------------------------------------------------*/
FoamFile
{
    version     2.0;
    format      ascii;
    arch        "LSB;label=32;scalar=64";
    class       volVectorField;
    location    "0.5";
    object      U;
}
// * * * * * * * * * * * * * * * * * * * * * * * * * * * * * * * * * * * * * //

dimensions      [0 1 -1 0 0 0 0];

internalField   nonuniform List<vector> 
200
(
(-0.0177031 -0.000145428 0)
(-0.0168061 -0.000468463 0)
(-0.0150309 -0.000755479 0)
(-0.0125258 -0.000974323 0)
(-0.00952688 -0.00109125 0)
(-0.00635529 -0.00107406 0)
(-0.00340079 -0.000898162 0)
(-0.00108646 -0.000556411 0)
(0.000196447 -9.03652e-05 0)
(0.000267876 0.000262401 0)
(-0.0461326 -0.000813535 0)
(-0.0439644 -0.00254739 0)
(-0.0397039 -0.00407898 0)
(-0.033705 -0.00524549 0)
(-0.0265151 -0.00588696 0)
(-0.0188558 -0.00586523 0)
(-0.0115674 -0.00509507 0)
(-0.00551361 -0.00358962 0)
(-0.00149316 -0.00155921 0)
(-4.25775e-05 0.000227482 0)
(-0.0704058 -0.00210689 0)
(-0.0672893 -0.00652608 0)
(-0.0611568 -0.01043 0)
(-0.0524922 -0.0134221 0)
(-0.04204 -0.0151245 0)
(-0.030776 -0.0152266 0)
(-0.0198304 -0.0135569 0)
(-0.0103642 -0.0101795 0)
(-0.00354873 -0.00555138 0)
(-0.000476873 -0.00094887 0)
(-0.09231 -0.00380845 0)
(-0.0884564 -0.0117976 0)
(-0.0808105 -0.0188836 0)
(-0.0699277 -0.024378 0)
(-0.056673 -0.0276295 0)
(-0.0421976 -0.0281036 0)
(-0.0278584 -0.0254993 0)
(-0.0150946 -0.0198929 0)
(-0.00550537 -0.0119283 0)
(-0.000861653 -0.00322503 0)
(-0.112905 -0.00578103 0)
(-0.108481 -0.0180561 0)
(-0.0995685 -0.0290134 0)
(-0.0867446 -0.0376352 0)
(-0.07094 -0.0429477 0)
(-0.0534334 -0.0441315 0)
(-0.0357866 -0.040681 0)
(-0.0197362 -0.0325942 0)
(-0.007371 -0.0205917 0)
(-0.00120374 -0.00649848 0)
(-0.132756 -0.0079171 0)
(-0.127929 -0.0251338 0)
(-0.117972 -0.0406274 0)
(-0.103439 -0.0530223 0)
(-0.0852728 -0.0609694 0)
(-0.0648384 -0.0632832 0)
(-0.0438873 -0.0591448 0)
(-0.0244787 -0.0483465 0)
(-0.00925469 -0.0315589 0)
(-0.00153782 -0.010729 0)
(-0.151954 -0.0100874 0)
(-0.14692 -0.0328345 0)
(-0.136185 -0.0535023 0)
(-0.120227 -0.0703401 0)
(-0.0999355 -0.0815688 0)
(-0.0767035 -0.0855361 0)
(-0.0524416 -0.0809668 0)
(-0.0295456 -0.0672795 0)
(-0.0112839 -0.0449411 0)
(-0.00190013 -0.0159521 0)
(-0.170066 -0.0121344 0)
(-0.165074 -0.0408951 0)
(-0.153932 -0.0673171 0)
(-0.136972 -0.0892765 0)
(-0.114944 -0.104516 0)
(-0.0891771 -0.1108 0)
(-0.0616715 -0.106216 0)
(-0.0351488 -0.089582 0)
(-0.013586 -0.0609512 0)
(-0.00232637 -0.0222782 0)
(-0.186059 -0.0138756 0)
(-0.181423 -0.0489585 0)
(-0.170396 -0.081596 0)
(-0.153082 -0.109327 0)
(-0.129972 -0.129384 0)
(-0.102186 -0.138832 0)
(-0.0716898 -0.13489 0)
(-0.0414671 -0.115472 0)
(-0.0162881 -0.079897 0)
(-0.00285471 -0.0298902 0)
(-0.198186 -0.0151134 0)
(-0.194284 -0.056547 0)
(-0.184082 -0.0956444 0)
(-0.167367 -0.129692 0)
(-0.144215 -0.155427 0)
(-0.115339 -0.169101 0)
(-0.0824459 -0.166805 0)
(-0.0486362 -0.145126 0)
(-0.0195287 -0.102161 0)
(-0.00353357 -0.0390478 0)
(-0.203856 -0.0156595 0)
(-0.201109 -0.0630519 0)
(-0.192648 -0.108493 0)
(-0.177857 -0.149174 0)
(-0.156224 -0.181418 0)
(-0.127779 -0.200609 0)
(-0.0936441 -0.201427 0)
(-0.056733 -0.178576 0)
(-0.0234798 -0.128174 0)
(-0.00443553 -0.0501049 0)
(-0.199501 -0.0153711 0)
(-0.198335 -0.0677443 0)
(-0.192717 -0.118869 0)
(-0.181573 -0.166081 0)
(-0.163645 -0.205491 0)
(-0.137966 -0.231664 0)
(-0.104596 -0.237628 0)
(-0.0657334 -0.215527 0)
(-0.0283776 -0.158369 0)
(-0.00568207 -0.0635526 0)
(-0.180483 -0.0141989 0)
(-0.181264 -0.0698223 0)
(-0.179694 -0.125212 0)
(-0.174269 -0.178182 0)
(-0.162894 -0.224975 0)
(-0.143316 -0.25959 0)
(-0.113937 -0.273331 0)
(-0.0753928 -0.255068 0)
(-0.0345562 -0.193091 0)
(-0.00748627 -0.0801046 0)
(-0.141106 -0.0122333 0)
(-0.144052 -0.0685081 0)
(-0.147666 -0.125796 0)
(-0.150167 -0.182771 0)
(-0.148719 -0.236326 0)
(-0.139642 -0.280449 0)
(-0.119094 -0.305027 0)
(-0.0849355 -0.29516 0)
(-0.0424403 -0.232378 0)
(-0.010216 -0.100837 0)
(-0.0747983 -0.00972905 0)
(-0.0798863 -0.0632119 0)
(-0.0894589 -0.118992 0)
(-0.101785 -0.176959 0)
(-0.113683 -0.235287 0)
(-0.120303 -0.288884 0)
(-0.115262 -0.327197 0)
(-0.0922658 -0.331795 0)
(-0.0523154 -0.275404 0)
(-0.0144303 -0.127347 0)
(0.0254036 -0.0070737 0)
(0.0185123 -0.0537592 0)
(0.00298426 -0.103753 0)
(-0.0199931 -0.158321 0)
(-0.0476828 -0.217503 0)
(-0.0749824 -0.278362 0)
(-0.0935452 -0.331792 0)
(-0.0920629 -0.357683 0)
(-0.0632802 -0.319295 0)
(-0.0206335 -0.161974 0)
(0.165946 -0.00467173 0)
(0.15794 -0.0406289 0)
(0.137736 -0.0802473 0)
(0.105444 -0.125919 0)
(0.0622649 -0.179727 0)
(0.0118078 -0.242021 0)
(-0.0378286 -0.307878 0)
(-0.0716787 -0.360144 0)
(-0.0700552 -0.356609 0)
(-0.0279122 -0.208375 0)
(0.351379 -0.00279426 0)
(0.343306 -0.0252654 0)
(0.321472 -0.0507882 0)
(0.284645 -0.0820486 0)
(0.231574 -0.122446 0)
(0.162182 -0.17567 0)
(0.0799015 -0.243432 0)
(-0.00318937 -0.319136 0)
(-0.0546694 -0.368612 0)
(-0.0284593 -0.267618 0)
(0.582382 -0.00149417 0)
(0.575697 -0.0108453 0)
(0.55731 -0.0218472 0)
(0.525136 -0.0363351 0)
(0.475778 -0.0572597 0)
(0.404538 -0.0893843 0)
(0.305177 -0.139741 0)
(0.173417 -0.216386 0)
(0.0411721 -0.311655 0)
(0.0184302 -0.299995 0)
(0.852667 -0.000499396 0)
(0.849383 -0.00221509 0)
(0.841 -0.00433859 0)
(0.826141 -0.00742411 0)
(0.802078 -0.0125323 0)
(0.763621 -0.0217729 0)
(0.699108 -0.0392829 0)
(0.583952 -0.0726601 0)
(0.415827 -0.127868 0)
(0.308819 -0.149468 0)
)
;

boundaryField
{
    movingWall
    {
        type            fixedValue;
        value           uniform (1 0 0);
    }
    fixedWalls
    {
        type            noSlip;
    }
    frontAndBack
    {
        type            empty;
    }
    procBoundary0to1
    {
        type            processor;
        value           nonuniform List<vector> 
20
(
(-0.0176591 0.000184499 0)
(-0.0460502 0.000966852 0)
(-0.0702878 0.00243889 0)
(-0.0921254 0.0044052 0)
(-0.112596 0.00681392 0)
(-0.132244 0.00969312 0)
(-0.151146 0.0130849 0)
(-0.168871 0.0170201 0)
(-0.184408 0.0214871 0)
(-0.196068 0.0263898 0)
(-0.20136 0.0314946 0)
(-0.196862 0.0363768 0)
(-0.178117 0.0403795 0)
(-0.139592 0.04262 0)
(-0.0747806 0.0420953 0)
(0.023445 0.0379471 0)
(0.162052 0.0298916 0)
(0.34647 0.0187787 0)
(0.578308 0.0074848 0)
(0.851372 0.00114934 0)
)
;
    }
}


// ************************************************************************* //
