/*--------------------------------*- C++ -*----------------------------------*\
| =========                 |                                                 |
| \\      /  F ield         | OpenFOAM: The Open Source CFD Toolbox           |
|  \\    /   O peration     | Version:  v2106                                 |
|   \\  /    A nd           | Website:  www.openfoam.com                      |
|    \\/     M anipulation  |                                                 |
\*---------------------------------------------------------------------------*/
FoamFile
{
    version     2.0;
    format      ascii;
    arch        "LSB;label=32;scalar=64";
    class       volScalarField;
    location    "0.4";
    object      p;
}
// * * * * * * * * * * * * * * * * * * * * * * * * * * * * * * * * * * * * * //

dimensions      [0 2 -2 0 0 0 0];

internalField   nonuniform List<scalar> 
400
(
-0.0432332
-0.0490629
-0.056201
-0.0616531
-0.0636706
-0.0614769
-0.0550125
-0.0447225
-0.0314017
-0.0160906
2.85411e-06
0.0155825
0.0293382
0.0400678
0.0468121
0.0490264
0.0467855
0.0410039
0.033641
0.0278277
-0.0374575
-0.0434568
-0.0490426
-0.0527812
-0.0538377
-0.0516715
-0.0462089
-0.037765
-0.0269365
-0.014528
-0.00149032
0.0111459
0.0223463
0.0311697
0.0368801
0.0390757
0.0378374
0.0338151
0.0280347
0.0220786
-0.0299043
-0.0382055
-0.0442344
-0.0476621
-0.048512
-0.0465031
-0.0416369
-0.0342118
-0.0247375
-0.0138904
-0.00247443
0.00862972
0.0185286
0.0263964
0.0315671
0.0336383
0.032602
0.0288465
0.0225663
0.0142966
-0.0231005
-0.0345436
-0.0420135
-0.0459078
-0.0469614
-0.0451246
-0.0405081
-0.0334549
-0.0244592
-0.0141447
-0.00324782
0.0074142
0.0169931
0.0246762
0.0297635
0.0317619
0.0305263
0.0262168
0.018364
0.00686391
-0.0187382
-0.0334666
-0.0426497
-0.0472263
-0.0485416
-0.0467467
-0.0420647
-0.0349049
-0.0257776
-0.0152906
-0.00415468
0.00683024
0.0168092
0.0249254
0.0303868
0.0325582
0.0311296
0.0260506
0.0162867
0.00129874
-0.0180624
-0.0360898
-0.0470415
-0.0522966
-0.0537515
-0.0517393
-0.0465961
-0.0388099
-0.0289261
-0.0175605
-0.0054257
0.00666378
0.0178086
0.0270636
0.0334952
0.0362775
0.0348997
0.0290945
0.0173006
-0.0013482
-0.0221467
-0.0435021
-0.056174
-0.0619486
-0.063269
-0.0606531
-0.0545575
-0.0455588
-0.0342487
-0.021263
-0.00732961
0.00670507
0.0198729
0.031106
0.0392826
0.0433303
0.0424816
0.0362082
0.0223817
-0.000166457
-0.0320971
-0.0568577
-0.0711143
-0.0770934
-0.0778425
-0.0740964
-0.0664517
-0.055584
-0.042134
-0.026755
-0.0101864
0.00669462
0.0228443
0.0370508
0.0479617
0.054191
0.0546313
0.0483972
0.0326577
0.0058783
-0.0492066
-0.0775057
-0.0931091
-0.0987875
-0.0983289
-0.0927533
-0.0828321
-0.0693518
-0.0529956
-0.0344155
-0.0143376
0.00635484
0.0265588
0.0449158
0.0598087
0.0694623
0.0723118
0.0669531
0.0495957
0.0181731
-0.075096
-0.107115
-0.123656
-0.128246
-0.125659
-0.117317
-0.104219
-0.0872748
-0.0671897
-0.044575
-0.0200926
0.00542272
0.0308572
0.0547338
0.0751574
0.0898871
0.0967499
0.0935793
0.0752021
0.0386953
-0.111906
-0.147842
-0.164583
-0.166828
-0.160754
-0.148365
-0.130956
-0.109563
-0.0848749
-0.0573934
-0.0276323
0.00371525
0.0356177
0.0665553
0.0943854
0.116347
0.129488
0.130539
0.112282
0.0703321
-0.16264
-0.202595
-0.218153
-0.215995
-0.204386
-0.186167
-0.162997
-0.136015
-0.105815
-0.0726852
-0.0368644
0.00123585
0.0408174
0.0804651
0.117898
0.149848
0.17243
0.180838
0.164812
0.117394
-0.231865
-0.275479
-0.287176
-0.277186
-0.256932
-0.230392
-0.19961
-0.165739
-0.129135
-0.0897095
-0.0472517
-0.00169853
0.0466047
0.0965916
0.146081
0.191451
0.227836
0.248426
0.238504
0.186537
-0.327211
-0.372542
-0.375069
-0.351517
-0.317946
-0.279677
-0.239002
-0.196847
-0.153077
-0.106982
-0.0576748
-0.00437361
0.0533171
0.115039
0.179137
0.24205
0.298159
0.338337
0.341675
0.288595
-0.462555
-0.502908
-0.485587
-0.439029
-0.385366
-0.330977
-0.277853
-0.226167
-0.174846
-0.122222
-0.0664505
-0.00576136
0.0613163
0.135601
0.216624
0.301733
0.385378
0.456462
0.486437
0.442152
-0.663768
-0.67998
-0.621914
-0.53743
-0.454478
-0.378895
-0.311017
-0.249214
-0.190773
-0.132619
-0.0716621
-0.00488795
0.0705703
0.157235
0.256738
0.368788
0.489792
0.608537
0.689533
0.679157
-0.97916
-0.921751
-0.784978
-0.641186
-0.51763
-0.415896
-0.332105
-0.260999
-0.19719
-0.1357
-0.0719531
-0.00154029
0.0800272
0.177482
0.295689
0.438918
0.608759
0.798104
0.972033
1.05426
-1.51966
-1.24987
-0.96374
-0.734625
-0.560542
-0.430781
-0.333298
-0.256574
-0.19136
-0.130452
-0.0678134
0.00222161
0.0857014
0.189835
0.323867
0.499441
0.728056
1.01608
1.36005
1.6869
-2.58289
-1.67378
-1.08768
-0.754196
-0.538988
-0.395331
-0.297768
-0.22682
-0.169406
-0.116832
-0.062505
-0.000448948
0.0759764
0.175547
0.311576
0.504747
0.783156
1.19334
1.86844
2.88096
-4.4099
-2.08787
-1.01678
-0.606419
-0.401085
-0.283385
-0.213357
-0.167021
-0.130718
-0.096747
-0.0598905
-0.015575
0.0413719
0.118494
0.229175
0.398863
0.674982
1.18247
2.3678
4.80529
)
;

boundaryField
{
    movingWall
    {
        type            zeroGradient;
    }
    fixedWalls
    {
        type            zeroGradient;
    }
    frontAndBack
    {
        type            empty;
    }
}


// ************************************************************************* //
