/*--------------------------------*- C++ -*----------------------------------*\
| =========                 |                                                 |
| \\      /  F ield         | OpenFOAM: The Open Source CFD Toolbox           |
|  \\    /   O peration     | Version:  v2106                                 |
|   \\  /    A nd           | Website:  www.openfoam.com                      |
|    \\/     M anipulation  |                                                 |
\*---------------------------------------------------------------------------*/
FoamFile
{
    version     2.0;
    format      ascii;
    arch        "LSB;label=32;scalar=64";
    class       volScalarField;
    location    "0.5";
    object      p;
}
// * * * * * * * * * * * * * * * * * * * * * * * * * * * * * * * * * * * * * //

dimensions      [0 2 -2 0 0 0 0];

internalField   nonuniform List<scalar> 
400
(
-0.043233
-0.0490628
-0.0562012
-0.0616536
-0.0636713
-0.0614776
-0.0550131
-0.044723
-0.031402
-0.0160905
3.14992e-06
0.0155833
0.0293392
0.040069
0.0468133
0.0490275
0.0467864
0.0410045
0.0336414
0.0278279
-0.037457
-0.0434565
-0.0490426
-0.0527814
-0.053838
-0.0516719
-0.0462092
-0.0377652
-0.0269365
-0.0145278
-0.00148998
0.0111464
0.022347
0.0311705
0.0368809
0.0390764
0.037838
0.0338155
0.0280349
0.0220786
-0.0299035
-0.038205
-0.0442341
-0.0476621
-0.048512
-0.0465032
-0.041637
-0.0342119
-0.0247374
-0.0138903
-0.00247416
0.00863012
0.0185291
0.026397
0.0315677
0.0336388
0.0326023
0.0288466
0.0225663
0.0142963
-0.0230994
-0.0345429
-0.0420131
-0.0459076
-0.0469613
-0.0451246
-0.0405081
-0.0334549
-0.0244592
-0.0141446
-0.00324763
0.00741448
0.0169935
0.0246766
0.0297638
0.0317622
0.0305265
0.0262168
0.0183637
0.00686335
-0.018737
-0.0334658
-0.0426492
-0.047226
-0.0485414
-0.0467466
-0.0420646
-0.0349049
-0.0257776
-0.0152905
-0.00415459
0.00683039
0.0168094
0.0249256
0.030387
0.0325584
0.0311296
0.0260505
0.0162863
0.00129794
-0.0180612
-0.036089
-0.047041
-0.0522963
-0.0537513
-0.0517392
-0.0465961
-0.03881
-0.0289261
-0.0175605
-0.00542573
0.0066638
0.0178086
0.0270637
0.0334952
0.0362775
0.0348996
0.0290942
0.0173
-0.00134914
-0.0221456
-0.0435014
-0.0561735
-0.0619484
-0.0632689
-0.060653
-0.0545575
-0.0455589
-0.0342489
-0.0212632
-0.00732979
0.00670492
0.0198727
0.0311059
0.0392825
0.0433302
0.0424814
0.0362078
0.0223812
-0.000167425
-0.0320963
-0.0568572
-0.0711141
-0.0770932
-0.0778425
-0.0740965
-0.0664519
-0.0555843
-0.0421343
-0.0267553
-0.0101867
0.00669431
0.022844
0.0370506
0.0479614
0.0541908
0.0546311
0.0483969
0.0326571
0.00587741
-0.0492062
-0.0775055
-0.093109
-0.0987875
-0.0983291
-0.0927535
-0.0828324
-0.0693523
-0.0529961
-0.034416
-0.0143381
0.00635435
0.0265583
0.0449153
0.0598083
0.069462
0.0723114
0.0669527
0.0495952
0.0181724
-0.0750961
-0.107115
-0.123656
-0.128246
-0.125659
-0.117317
-0.10422
-0.0872754
-0.0671903
-0.0445757
-0.0200933
0.00542206
0.0308566
0.0547332
0.0751569
0.0898866
0.0967494
0.093579
0.0752017
0.0386948
-0.111906
-0.147842
-0.164583
-0.166829
-0.160754
-0.148365
-0.130957
-0.109564
-0.0848757
-0.0573943
-0.0276332
0.00371443
0.035617
0.0665547
0.0943849
0.116347
0.129488
0.130539
0.112282
0.0703319
-0.162641
-0.202596
-0.218154
-0.215996
-0.204386
-0.186167
-0.162998
-0.136016
-0.105816
-0.0726861
-0.0368654
0.00123489
0.0408165
0.0804644
0.117898
0.149847
0.172429
0.180838
0.164812
0.117394
-0.231867
-0.27548
-0.287177
-0.277186
-0.256933
-0.230393
-0.199611
-0.165739
-0.129136
-0.0897104
-0.0472528
-0.00169956
0.0466037
0.0965909
0.14608
0.191451
0.227836
0.248426
0.238504
0.186537
-0.327212
-0.372543
-0.37507
-0.351518
-0.317947
-0.279678
-0.239002
-0.196848
-0.153078
-0.106983
-0.0576758
-0.00437463
0.0533162
0.115038
0.179136
0.24205
0.298159
0.338337
0.341675
0.288595
-0.462556
-0.502909
-0.485588
-0.43903
-0.385367
-0.330977
-0.277853
-0.226167
-0.174847
-0.122223
-0.0664514
-0.00576224
0.0613155
0.1356
0.216623
0.301732
0.385378
0.456462
0.486437
0.442153
-0.663769
-0.679981
-0.621914
-0.53743
-0.454478
-0.378895
-0.311018
-0.249215
-0.190774
-0.13262
-0.0716629
-0.00488866
0.0705697
0.157234
0.256738
0.368788
0.489792
0.608538
0.689534
0.679158
-0.979161
-0.921752
-0.784979
-0.641185
-0.51763
-0.415896
-0.332105
-0.261
-0.19719
-0.135701
-0.0719538
-0.00154086
0.0800267
0.177481
0.295689
0.438918
0.60876
0.798104
0.972034
1.05427
-1.51966
-1.24987
-0.96374
-0.734625
-0.560542
-0.430781
-0.333298
-0.256574
-0.191361
-0.130452
-0.067814
0.00222108
0.0857009
0.189834
0.323866
0.499441
0.728056
1.01608
1.36005
1.6869
-2.58289
-1.67378
-1.08767
-0.754196
-0.538987
-0.39533
-0.297767
-0.22682
-0.169406
-0.116832
-0.0625056
-0.000449597
0.0759758
0.175546
0.311575
0.504747
0.783156
1.19334
1.86844
2.88096
-4.4099
-2.08787
-1.01678
-0.606418
-0.401083
-0.283384
-0.213356
-0.16702
-0.130718
-0.096747
-0.0598911
-0.0155759
0.041371
0.118493
0.229175
0.398862
0.674982
1.18247
2.3678
4.80529
)
;

boundaryField
{
    movingWall
    {
        type            zeroGradient;
    }
    fixedWalls
    {
        type            zeroGradient;
    }
    frontAndBack
    {
        type            empty;
    }
}


// ************************************************************************* //
